ITEM: TIMESTEP
0
ITEM: NUMBER OF ATOMS
5
ITEM: BOX BOUNDS pp pp pp
0 10.000000
0 10.000000
0 10.000000
ITEM: ATOMS id x y z vx vy vz 
0 5.309491 5.000000 5.000000 0.618982 -1.953066 -0.870405
1 9.902648 0.000000 0.000000 -0.194704 0.884219 1.095459
2 9.493331 0.000000 0.000000 -1.013338 0.655515 -0.202013
3 0.168745 0.000000 0.000000 0.337489 0.173536 -0.323937
4 0.125785 0.000000 0.000000 0.251571 0.239796 0.300896
ITEM: TIMESTEP
1
ITEM: NUMBER OF ATOMS
5
ITEM: BOX BOUNDS pp pp pp
0 10.000000
0 10.000000
0 10.000000
ITEM: ATOMS id x y z vx vy vz 
0 5.618982 5.000000 5.000000 0.618982 -1.953066 -0.870405
1 9.805296 0.000000 0.000000 -0.194704 0.884219 1.095459
2 8.986662 0.000000 0.000000 -1.013338 0.655515 -0.202013
3 0.337489 0.000000 0.000000 0.337489 0.173536 -0.323937
4 0.251571 0.000000 0.000000 0.251571 0.239796 0.300896
ITEM: TIMESTEP
2
ITEM: NUMBER OF ATOMS
5
ITEM: BOX BOUNDS pp pp pp
0 10.000000
0 10.000000
0 10.000000
ITEM: ATOMS id x y z vx vy vz 
0 5.928473 5.000000 5.000000 0.618982 -1.953066 -0.870405
1 9.707944 0.000000 0.000000 -0.194704 0.884219 1.095459
2 8.479993 0.000000 0.000000 -1.013338 0.655515 -0.202013
3 0.506234 0.000000 0.000000 0.337489 0.173536 -0.323937
4 0.377356 0.000000 0.000000 0.251571 0.239796 0.300896
ITEM: TIMESTEP
3
ITEM: NUMBER OF ATOMS
5
ITEM: BOX BOUNDS pp pp pp
0 10.000000
0 10.000000
0 10.000000
ITEM: ATOMS id x y z vx vy vz 
0 6.237965 5.000000 5.000000 0.618982 -1.953066 -0.870405
1 9.610592 0.000000 0.000000 -0.194704 0.884219 1.095459
2 7.973324 0.000000 0.000000 -1.013338 0.655515 -0.202013
3 0.674979 0.000000 0.000000 0.337489 0.173536 -0.323937
4 0.503142 0.000000 0.000000 0.251571 0.239796 0.300896
ITEM: TIMESTEP
4
ITEM: NUMBER OF ATOMS
5
ITEM: BOX BOUNDS pp pp pp
0 10.000000
0 10.000000
0 10.000000
ITEM: ATOMS id x y z vx vy vz 
0 6.547456 5.000000 5.000000 0.618982 -1.953066 -0.870405
1 9.513240 0.000000 0.000000 -0.194704 0.884219 1.095459
2 7.466655 0.000000 0.000000 -1.013338 0.655515 -0.202013
3 0.843723 0.000000 0.000000 0.337489 0.173536 -0.323937
4 0.628927 0.000000 0.000000 0.251571 0.239796 0.300896
ITEM: TIMESTEP
5
ITEM: NUMBER OF ATOMS
5
ITEM: BOX BOUNDS pp pp pp
0 10.000000
0 10.000000
0 10.000000
ITEM: ATOMS id x y z vx vy vz 
0 6.856947 5.000000 5.000000 0.618982 -1.953066 -0.870405
1 9.415888 0.000000 0.000000 -0.194704 0.884219 1.095459
2 6.959986 0.000000 0.000000 -1.013338 0.655515 -0.202013
3 1.012468 0.000000 0.000000 0.337489 0.173536 -0.323937
4 0.754712 0.000000 0.000000 0.251571 0.239796 0.300896
ITEM: TIMESTEP
6
ITEM: NUMBER OF ATOMS
5
ITEM: BOX BOUNDS pp pp pp
0 10.000000
0 10.000000
0 10.000000
ITEM: ATOMS id x y z vx vy vz 
0 7.166438 5.000000 5.000000 0.618982 -1.953066 -0.870405
1 9.318536 0.000000 0.000000 -0.194704 0.884219 1.095459
2 6.453317 0.000000 0.000000 -1.013338 0.655515 -0.202013
3 1.181213 0.000000 0.000000 0.337489 0.173536 -0.323937
4 0.880498 0.000000 0.000000 0.251571 0.239796 0.300896
ITEM: TIMESTEP
7
ITEM: NUMBER OF ATOMS
5
ITEM: BOX BOUNDS pp pp pp
0 10.000000
0 10.000000
0 10.000000
ITEM: ATOMS id x y z vx vy vz 
0 7.475929 5.000000 5.000000 0.618982 -1.953066 -0.870405
1 9.221184 0.000000 0.000000 -0.194704 0.884219 1.095459
2 5.946648 0.000000 0.000000 -1.013338 0.655515 -0.202013
3 1.349957 0.000000 0.000000 0.337489 0.173536 -0.323937
4 1.006283 0.000000 0.000000 0.251571 0.239796 0.300896
ITEM: TIMESTEP
8
ITEM: NUMBER OF ATOMS
5
ITEM: BOX BOUNDS pp pp pp
0 10.000000
0 10.000000
0 10.000000
ITEM: ATOMS id x y z vx vy vz 
0 7.785420 5.000000 5.000000 0.618982 -1.953066 -0.870405
1 9.123832 0.000000 0.000000 -0.194704 0.884219 1.095459
2 5.439979 0.000000 0.000000 -1.013338 0.655515 -0.202013
3 1.518702 0.000000 0.000000 0.337489 0.173536 -0.323937
4 1.132069 0.000000 0.000000 0.251571 0.239796 0.300896
ITEM: TIMESTEP
9
ITEM: NUMBER OF ATOMS
5
ITEM: BOX BOUNDS pp pp pp
0 10.000000
0 10.000000
0 10.000000
ITEM: ATOMS id x y z vx vy vz 
0 8.094912 5.000000 5.000000 0.618982 -1.953066 -0.870405
1 9.026480 0.000000 0.000000 -0.194704 0.884219 1.095459
2 4.933310 0.000000 0.000000 -1.013338 0.655515 -0.202013
3 1.687447 0.000000 0.000000 0.337489 0.173536 -0.323937
4 1.257854 0.000000 0.000000 0.251571 0.239796 0.300896
ITEM: TIMESTEP
10
ITEM: NUMBER OF ATOMS
5
ITEM: BOX BOUNDS pp pp pp
0 10.000000
0 10.000000
0 10.000000
ITEM: ATOMS id x y z vx vy vz 
0 8.404403 5.000000 5.000000 0.618982 -1.953066 -0.870405
1 8.929128 0.000000 0.000000 -0.194704 0.884219 1.095459
2 4.426641 0.000000 0.000000 -1.013338 0.655515 -0.202013
3 1.856192 0.000000 0.000000 0.337489 0.173536 -0.323937
4 1.383639 0.000000 0.000000 0.251571 0.239796 0.300896
ITEM: TIMESTEP
11
ITEM: NUMBER OF ATOMS
5
ITEM: BOX BOUNDS pp pp pp
0 10.000000
0 10.000000
0 10.000000
ITEM: ATOMS id x y z vx vy vz 
0 8.713894 5.000000 5.000000 0.618982 -1.953066 -0.870405
1 8.831776 0.000000 0.000000 -0.194704 0.884219 1.095459
2 3.919971 0.000000 0.000000 -1.013338 0.655515 -0.202013
3 2.024936 0.000000 0.000000 0.337489 0.173536 -0.323937
4 1.509425 0.000000 0.000000 0.251571 0.239796 0.300896
ITEM: TIMESTEP
12
ITEM: NUMBER OF ATOMS
5
ITEM: BOX BOUNDS pp pp pp
0 10.000000
0 10.000000
0 10.000000
ITEM: ATOMS id x y z vx vy vz 
0 9.023385 5.000000 5.000000 0.618982 -1.953066 -0.870405
1 8.734424 0.000000 0.000000 -0.194704 0.884219 1.095459
2 3.413302 0.000000 0.000000 -1.013338 0.655515 -0.202013
3 2.193681 0.000000 0.000000 0.337489 0.173536 -0.323937
4 1.635210 0.000000 0.000000 0.251571 0.239796 0.300896
ITEM: TIMESTEP
13
ITEM: NUMBER OF ATOMS
5
ITEM: BOX BOUNDS pp pp pp
0 10.000000
0 10.000000
0 10.000000
ITEM: ATOMS id x y z vx vy vz 
0 9.332876 5.000000 5.000000 0.618982 -1.953066 -0.870405
1 8.637072 0.000000 0.000000 -0.194704 0.884219 1.095459
2 2.906633 0.000000 0.000000 -1.013338 0.655515 -0.202013
3 2.362425 0.000000 0.000000 0.337489 0.173536 -0.323937
4 1.760995 0.000000 0.000000 0.251571 0.239796 0.300896
ITEM: TIMESTEP
14
ITEM: NUMBER OF ATOMS
5
ITEM: BOX BOUNDS pp pp pp
0 10.000000
0 10.000000
0 10.000000
ITEM: ATOMS id x y z vx vy vz 
0 9.642367 5.000000 5.000000 0.618982 -1.953066 -0.870405
1 8.539720 0.000000 0.000000 -0.194704 0.884219 1.095459
2 2.399964 0.000000 0.000000 -1.013338 0.655515 -0.202013
3 2.531170 0.000000 0.000000 0.337489 0.173536 -0.323937
4 1.886781 0.000000 0.000000 0.251571 0.239796 0.300896
ITEM: TIMESTEP
15
ITEM: NUMBER OF ATOMS
5
ITEM: BOX BOUNDS pp pp pp
0 10.000000
0 10.000000
0 10.000000
ITEM: ATOMS id x y z vx vy vz 
0 9.951859 5.000000 5.000000 0.618982 -1.953066 -0.870405
1 8.442368 0.000000 0.000000 -0.194704 0.884219 1.095459
2 1.893295 0.000000 0.000000 -1.013338 0.655515 -0.202013
3 2.699914 0.000000 0.000000 0.337489 0.173536 -0.323937
4 2.012566 0.000000 0.000000 0.251571 0.239796 0.300896
ITEM: TIMESTEP
16
ITEM: NUMBER OF ATOMS
5
ITEM: BOX BOUNDS pp pp pp
0 10.000000
0 10.000000
0 10.000000
ITEM: ATOMS id x y z vx vy vz 
0 0.261350 5.000000 5.000000 0.618982 -1.953066 -0.870405
1 8.345016 0.000000 0.000000 -0.194704 0.884219 1.095459
2 1.386626 0.000000 0.000000 -1.013338 0.655515 -0.202013
3 2.868659 0.000000 0.000000 0.337489 0.173536 -0.323937
4 2.138351 0.000000 0.000000 0.251571 0.239796 0.300896
ITEM: TIMESTEP
17
ITEM: NUMBER OF ATOMS
5
ITEM: BOX BOUNDS pp pp pp
0 10.000000
0 10.000000
0 10.000000
ITEM: ATOMS id x y z vx vy vz 
0 0.570841 5.000000 5.000000 0.618982 -1.953066 -0.870405
1 8.247663 0.000000 0.000000 -0.194704 0.884219 1.095459
2 0.879957 0.000000 0.000000 -1.013338 0.655515 -0.202013
3 3.037404 0.000000 0.000000 0.337489 0.173536 -0.323937
4 2.264137 0.000000 0.000000 0.251571 0.239796 0.300896
ITEM: TIMESTEP
18
ITEM: NUMBER OF ATOMS
5
ITEM: BOX BOUNDS pp pp pp
0 10.000000
0 10.000000
0 10.000000
ITEM: ATOMS id x y z vx vy vz 
0 0.880332 5.000000 5.000000 0.618982 -1.953066 -0.870405
1 8.150311 0.000000 0.000000 -0.194704 0.884219 1.095459
2 0.373288 0.000000 0.000000 -1.013338 0.655515 -0.202013
3 3.206148 0.000000 0.000000 0.337489 0.173536 -0.323937
4 2.389922 0.000000 0.000000 0.251571 0.239796 0.300896
ITEM: TIMESTEP
19
ITEM: NUMBER OF ATOMS
5
ITEM: BOX BOUNDS pp pp pp
0 10.000000
0 10.000000
0 10.000000
ITEM: ATOMS id x y z vx vy vz 
0 1.189822 5.000000 5.000000 0.618982 -1.953066 -0.870405
1 8.052959 0.000000 0.000000 -0.194704 0.884219 1.095459
2 9.866619 0.000000 0.000000 -1.013338 0.655515 -0.202013
3 3.374893 0.000000 0.000000 0.337489 0.173536 -0.323937
4 2.515707 0.000000 0.000000 0.251571 0.239796 0.300896
ITEM: TIMESTEP
20
ITEM: NUMBER OF ATOMS
5
ITEM: BOX BOUNDS pp pp pp
0 10.000000
0 10.000000
0 10.000000
ITEM: ATOMS id x y z vx vy vz 
0 1.499313 5.000000 5.000000 0.618982 -1.953066 -0.870405
1 7.955607 0.000000 0.000000 -0.194704 0.884219 1.095459
2 9.359950 0.000000 0.000000 -1.013338 0.655515 -0.202013
3 3.543637 0.000000 0.000000 0.337489 0.173536 -0.323937
4 2.641493 0.000000 0.000000 0.251571 0.239796 0.300896
ITEM: TIMESTEP
21
ITEM: NUMBER OF ATOMS
5
ITEM: BOX BOUNDS pp pp pp
0 10.000000
0 10.000000
0 10.000000
ITEM: ATOMS id x y z vx vy vz 
0 1.808804 5.000000 5.000000 0.618982 -1.953066 -0.870405
1 7.858255 0.000000 0.000000 -0.194704 0.884219 1.095459
2 8.853281 0.000000 0.000000 -1.013338 0.655515 -0.202013
3 3.712382 0.000000 0.000000 0.337489 0.173536 -0.323937
4 2.767278 0.000000 0.000000 0.251571 0.239796 0.300896
ITEM: TIMESTEP
22
ITEM: NUMBER OF ATOMS
5
ITEM: BOX BOUNDS pp pp pp
0 10.000000
0 10.000000
0 10.000000
ITEM: ATOMS id x y z vx vy vz 
0 2.118295 5.000000 5.000000 0.618982 -1.953066 -0.870405
1 7.760903 0.000000 0.000000 -0.194704 0.884219 1.095459
2 8.346612 0.000000 0.000000 -1.013338 0.655515 -0.202013
3 3.881126 0.000000 0.000000 0.337489 0.173536 -0.323937
4 2.893064 0.000000 0.000000 0.251571 0.239796 0.300896
ITEM: TIMESTEP
23
ITEM: NUMBER OF ATOMS
5
ITEM: BOX BOUNDS pp pp pp
0 10.000000
0 10.000000
0 10.000000
ITEM: ATOMS id x y z vx vy vz 
0 2.427786 5.000000 5.000000 0.618982 -1.953066 -0.870405
1 7.663551 0.000000 0.000000 -0.194704 0.884219 1.095459
2 7.839943 0.000000 0.000000 -1.013338 0.655515 -0.202013
3 4.049871 0.000000 0.000000 0.337489 0.173536 -0.323937
4 3.018849 0.000000 0.000000 0.251571 0.239796 0.300896
ITEM: TIMESTEP
24
ITEM: NUMBER OF ATOMS
5
ITEM: BOX BOUNDS pp pp pp
0 10.000000
0 10.000000
0 10.000000
ITEM: ATOMS id x y z vx vy vz 
0 2.737277 5.000000 5.000000 0.618982 -1.953066 -0.870405
1 7.566199 0.000000 0.000000 -0.194704 0.884219 1.095459
2 7.333274 0.000000 0.000000 -1.013338 0.655515 -0.202013
3 4.218616 0.000000 0.000000 0.337489 0.173536 -0.323937
4 3.144634 0.000000 0.000000 0.251571 0.239796 0.300896
ITEM: TIMESTEP
25
ITEM: NUMBER OF ATOMS
5
ITEM: BOX BOUNDS pp pp pp
0 10.000000
0 10.000000
0 10.000000
ITEM: ATOMS id x y z vx vy vz 
0 3.046768 5.000000 5.000000 0.618982 -1.953066 -0.870405
1 7.468847 0.000000 0.000000 -0.194704 0.884219 1.095459
2 6.826605 0.000000 0.000000 -1.013338 0.655515 -0.202013
3 4.387360 0.000000 0.000000 0.337489 0.173536 -0.323937
4 3.270420 0.000000 0.000000 0.251571 0.239796 0.300896
ITEM: TIMESTEP
26
ITEM: NUMBER OF ATOMS
5
ITEM: BOX BOUNDS pp pp pp
0 10.000000
0 10.000000
0 10.000000
ITEM: ATOMS id x y z vx vy vz 
0 3.356259 5.000000 5.000000 0.618982 -1.953066 -0.870405
1 7.371495 0.000000 0.000000 -0.194704 0.884219 1.095459
2 6.319936 0.000000 0.000000 -1.013338 0.655515 -0.202013
3 4.556105 0.000000 0.000000 0.337489 0.173536 -0.323937
4 3.396205 0.000000 0.000000 0.251571 0.239796 0.300896
ITEM: TIMESTEP
27
ITEM: NUMBER OF ATOMS
5
ITEM: BOX BOUNDS pp pp pp
0 10.000000
0 10.000000
0 10.000000
ITEM: ATOMS id x y z vx vy vz 
0 3.665750 5.000000 5.000000 0.618982 -1.953066 -0.870405
1 7.274143 0.000000 0.000000 -0.194704 0.884219 1.095459
2 5.813267 0.000000 0.000000 -1.013338 0.655515 -0.202013
3 4.724849 0.000000 0.000000 0.337489 0.173536 -0.323937
4 3.521990 0.000000 0.000000 0.251571 0.239796 0.300896
ITEM: TIMESTEP
28
ITEM: NUMBER OF ATOMS
5
ITEM: BOX BOUNDS pp pp pp
0 10.000000
0 10.000000
0 10.000000
ITEM: ATOMS id x y z vx vy vz 
0 3.975241 5.000000 5.000000 0.618982 -1.953066 -0.870405
1 7.176791 0.000000 0.000000 -0.194704 0.884219 1.095459
2 5.306598 0.000000 0.000000 -1.013338 0.655515 -0.202013
3 4.893594 0.000000 0.000000 0.337489 0.173536 -0.323937
4 3.647776 0.000000 0.000000 0.251571 0.239796 0.300896
ITEM: TIMESTEP
29
ITEM: NUMBER OF ATOMS
5
ITEM: BOX BOUNDS pp pp pp
0 10.000000
0 10.000000
0 10.000000
ITEM: ATOMS id x y z vx vy vz 
0 4.284732 5.000000 5.000000 0.618982 -1.953066 -0.870405
1 7.079439 0.000000 0.000000 -0.194704 0.884219 1.095459
2 4.799929 0.000000 0.000000 -1.013338 0.655515 -0.202013
3 5.062338 0.000000 0.000000 0.337489 0.173536 -0.323937
4 3.773561 0.000000 0.000000 0.251571 0.239796 0.300896
ITEM: TIMESTEP
30
ITEM: NUMBER OF ATOMS
5
ITEM: BOX BOUNDS pp pp pp
0 10.000000
0 10.000000
0 10.000000
ITEM: ATOMS id x y z vx vy vz 
0 4.594223 5.000000 5.000000 0.618982 -1.953066 -0.870405
1 6.982087 0.000000 0.000000 -0.194704 0.884219 1.095459
2 4.293260 0.000000 0.000000 -1.013338 0.655515 -0.202013
3 5.231083 0.000000 0.000000 0.337489 0.173536 -0.323937
4 3.899346 0.000000 0.000000 0.251571 0.239796 0.300896
ITEM: TIMESTEP
31
ITEM: NUMBER OF ATOMS
5
ITEM: BOX BOUNDS pp pp pp
0 10.000000
0 10.000000
0 10.000000
ITEM: ATOMS id x y z vx vy vz 
0 4.903714 5.000000 5.000000 0.618982 -1.953066 -0.870405
1 6.884735 0.000000 0.000000 -0.194704 0.884219 1.095459
2 3.786591 0.000000 0.000000 -1.013338 0.655515 -0.202013
3 5.399827 0.000000 0.000000 0.337489 0.173536 -0.323937
4 4.025132 0.000000 0.000000 0.251571 0.239796 0.300896
ITEM: TIMESTEP
32
ITEM: NUMBER OF ATOMS
5
ITEM: BOX BOUNDS pp pp pp
0 10.000000
0 10.000000
0 10.000000
ITEM: ATOMS id x y z vx vy vz 
0 5.213205 5.000000 5.000000 0.618982 -1.953066 -0.870405
1 6.787383 0.000000 0.000000 -0.194704 0.884219 1.095459
2 3.279922 0.000000 0.000000 -1.013338 0.655515 -0.202013
3 5.568572 0.000000 0.000000 0.337489 0.173536 -0.323937
4 4.150917 0.000000 0.000000 0.251571 0.239796 0.300896
ITEM: TIMESTEP
33
ITEM: NUMBER OF ATOMS
5
ITEM: BOX BOUNDS pp pp pp
0 10.000000
0 10.000000
0 10.000000
ITEM: ATOMS id x y z vx vy vz 
0 5.522696 5.000000 5.000000 0.618982 -1.953066 -0.870405
1 6.690031 0.000000 0.000000 -0.194704 0.884219 1.095459
2 2.773252 0.000000 0.000000 -1.013338 0.655515 -0.202013
3 5.737317 0.000000 0.000000 0.337489 0.173536 -0.323937
4 4.276702 0.000000 0.000000 0.251571 0.239796 0.300896
ITEM: TIMESTEP
34
ITEM: NUMBER OF ATOMS
5
ITEM: BOX BOUNDS pp pp pp
0 10.000000
0 10.000000
0 10.000000
ITEM: ATOMS id x y z vx vy vz 
0 5.832188 5.000000 5.000000 0.618982 -1.953066 -0.870405
1 6.592679 0.000000 0.000000 -0.194704 0.884219 1.095459
2 2.266583 0.000000 0.000000 -1.013338 0.655515 -0.202013
3 5.906061 0.000000 0.000000 0.337489 0.173536 -0.323937
4 4.402488 0.000000 0.000000 0.251571 0.239796 0.300896
ITEM: TIMESTEP
35
ITEM: NUMBER OF ATOMS
5
ITEM: BOX BOUNDS pp pp pp
0 10.000000
0 10.000000
0 10.000000
ITEM: ATOMS id x y z vx vy vz 
0 6.141679 5.000000 5.000000 0.618982 -1.953066 -0.870405
1 6.495327 0.000000 0.000000 -0.194704 0.884219 1.095459
2 1.759914 0.000000 0.000000 -1.013338 0.655515 -0.202013
3 6.074806 0.000000 0.000000 0.337489 0.173536 -0.323937
4 4.528273 0.000000 0.000000 0.251571 0.239796 0.300896
ITEM: TIMESTEP
36
ITEM: NUMBER OF ATOMS
5
ITEM: BOX BOUNDS pp pp pp
0 10.000000
0 10.000000
0 10.000000
ITEM: ATOMS id x y z vx vy vz 
0 6.451170 5.000000 5.000000 0.618982 -1.953066 -0.870405
1 6.397975 0.000000 0.000000 -0.194704 0.884219 1.095459
2 1.253245 0.000000 0.000000 -1.013338 0.655515 -0.202013
3 6.243550 0.000000 0.000000 0.337489 0.173536 -0.323937
4 4.654058 0.000000 0.000000 0.251571 0.239796 0.300896
ITEM: TIMESTEP
37
ITEM: NUMBER OF ATOMS
5
ITEM: BOX BOUNDS pp pp pp
0 10.000000
0 10.000000
0 10.000000
ITEM: ATOMS id x y z vx vy vz 
0 6.760661 5.000000 5.000000 0.618982 -1.953066 -0.870405
1 6.300623 0.000000 0.000000 -0.194704 0.884219 1.095459
2 0.746576 0.000000 0.000000 -1.013338 0.655515 -0.202013
3 6.412295 0.000000 0.000000 0.337489 0.173536 -0.323937
4 4.779844 0.000000 0.000000 0.251571 0.239796 0.300896
ITEM: TIMESTEP
38
ITEM: NUMBER OF ATOMS
5
ITEM: BOX BOUNDS pp pp pp
0 10.000000
0 10.000000
0 10.000000
ITEM: ATOMS id x y z vx vy vz 
0 7.070152 5.000000 5.000000 0.618982 -1.953066 -0.870405
1 6.203271 0.000000 0.000000 -0.194704 0.884219 1.095459
2 0.239907 0.000000 0.000000 -1.013338 0.655515 -0.202013
3 6.581039 0.000000 0.000000 0.337489 0.173536 -0.323937
4 4.905629 0.000000 0.000000 0.251571 0.239796 0.300896
ITEM: TIMESTEP
39
ITEM: NUMBER OF ATOMS
5
ITEM: BOX BOUNDS pp pp pp
0 10.000000
0 10.000000
0 10.000000
ITEM: ATOMS id x y z vx vy vz 
0 7.379643 5.000000 5.000000 0.618982 -1.953066 -0.870405
1 6.105919 0.000000 0.000000 -0.194704 0.884219 1.095459
2 9.733238 0.000000 0.000000 -1.013338 0.655515 -0.202013
3 6.749784 0.000000 0.000000 0.337489 0.173536 -0.323937
4 5.031415 0.000000 0.000000 0.251571 0.239796 0.300896
ITEM: TIMESTEP
40
ITEM: NUMBER OF ATOMS
5
ITEM: BOX BOUNDS pp pp pp
0 10.000000
0 10.000000
0 10.000000
ITEM: ATOMS id x y z vx vy vz 
0 7.689135 5.000000 5.000000 0.618982 -1.953066 -0.870405
1 6.008567 0.000000 0.000000 -0.194704 0.884219 1.095459
2 9.226569 0.000000 0.000000 -1.013338 0.655515 -0.202013
3 6.918529 0.000000 0.000000 0.337489 0.173536 -0.323937
4 5.157200 0.000000 0.000000 0.251571 0.239796 0.300896
ITEM: TIMESTEP
41
ITEM: NUMBER OF ATOMS
5
ITEM: BOX BOUNDS pp pp pp
0 10.000000
0 10.000000
0 10.000000
ITEM: ATOMS id x y z vx vy vz 
0 7.998626 5.000000 5.000000 0.618982 -1.953066 -0.870405
1 5.911215 0.000000 0.000000 -0.194704 0.884219 1.095459
2 8.719900 0.000000 0.000000 -1.013338 0.655515 -0.202013
3 7.087273 0.000000 0.000000 0.337489 0.173536 -0.323937
4 5.282985 0.000000 0.000000 0.251571 0.239796 0.300896
ITEM: TIMESTEP
42
ITEM: NUMBER OF ATOMS
5
ITEM: BOX BOUNDS pp pp pp
0 10.000000
0 10.000000
0 10.000000
ITEM: ATOMS id x y z vx vy vz 
0 8.308117 5.000000 5.000000 0.618982 -1.953066 -0.870405
1 5.813863 0.000000 0.000000 -0.194704 0.884219 1.095459
2 8.213231 0.000000 0.000000 -1.013338 0.655515 -0.202013
3 7.256018 0.000000 0.000000 0.337489 0.173536 -0.323937
4 5.408771 0.000000 0.000000 0.251571 0.239796 0.300896
ITEM: TIMESTEP
43
ITEM: NUMBER OF ATOMS
5
ITEM: BOX BOUNDS pp pp pp
0 10.000000
0 10.000000
0 10.000000
ITEM: ATOMS id x y z vx vy vz 
0 8.617608 5.000000 5.000000 0.618982 -1.953066 -0.870405
1 5.716511 0.000000 0.000000 -0.194704 0.884219 1.095459
2 7.706562 0.000000 0.000000 -1.013338 0.655515 -0.202013
3 7.424762 0.000000 0.000000 0.337489 0.173536 -0.323937
4 5.534556 0.000000 0.000000 0.251571 0.239796 0.300896
ITEM: TIMESTEP
44
ITEM: NUMBER OF ATOMS
5
ITEM: BOX BOUNDS pp pp pp
0 10.000000
0 10.000000
0 10.000000
ITEM: ATOMS id x y z vx vy vz 
0 8.927099 5.000000 5.000000 0.618982 -1.953066 -0.870405
1 5.619159 0.000000 0.000000 -0.194704 0.884219 1.095459
2 7.199893 0.000000 0.000000 -1.013338 0.655515 -0.202013
3 7.593507 0.000000 0.000000 0.337489 0.173536 -0.323937
4 5.660341 0.000000 0.000000 0.251571 0.239796 0.300896
ITEM: TIMESTEP
45
ITEM: NUMBER OF ATOMS
5
ITEM: BOX BOUNDS pp pp pp
0 10.000000
0 10.000000
0 10.000000
ITEM: ATOMS id x y z vx vy vz 
0 9.236590 5.000000 5.000000 0.618982 -1.953066 -0.870405
1 5.521807 0.000000 0.000000 -0.194704 0.884219 1.095459
2 6.693224 0.000000 0.000000 -1.013338 0.655515 -0.202013
3 7.762251 0.000000 0.000000 0.337489 0.173536 -0.323937
4 5.786127 0.000000 0.000000 0.251571 0.239796 0.300896
ITEM: TIMESTEP
46
ITEM: NUMBER OF ATOMS
5
ITEM: BOX BOUNDS pp pp pp
0 10.000000
0 10.000000
0 10.000000
ITEM: ATOMS id x y z vx vy vz 
0 9.546082 5.000000 5.000000 0.618982 -1.953066 -0.870405
1 5.424455 0.000000 0.000000 -0.194704 0.884219 1.095459
2 6.186555 0.000000 0.000000 -1.013338 0.655515 -0.202013
3 7.930996 0.000000 0.000000 0.337489 0.173536 -0.323937
4 5.911912 0.000000 0.000000 0.251571 0.239796 0.300896
ITEM: TIMESTEP
47
ITEM: NUMBER OF ATOMS
5
ITEM: BOX BOUNDS pp pp pp
0 10.000000
0 10.000000
0 10.000000
ITEM: ATOMS id x y z vx vy vz 
0 9.855573 5.000000 5.000000 0.618982 -1.953066 -0.870405
1 5.327103 0.000000 0.000000 -0.194704 0.884219 1.095459
2 5.679886 0.000000 0.000000 -1.013338 0.655515 -0.202013
3 8.099741 0.000000 0.000000 0.337489 0.173536 -0.323937
4 6.037697 0.000000 0.000000 0.251571 0.239796 0.300896
ITEM: TIMESTEP
48
ITEM: NUMBER OF ATOMS
5
ITEM: BOX BOUNDS pp pp pp
0 10.000000
0 10.000000
0 10.000000
ITEM: ATOMS id x y z vx vy vz 
0 0.165064 5.000000 5.000000 0.618982 -1.953066 -0.870405
1 5.229751 0.000000 0.000000 -0.194704 0.884219 1.095459
2 5.173217 0.000000 0.000000 -1.013338 0.655515 -0.202013
3 8.268486 0.000000 0.000000 0.337489 0.173536 -0.323937
4 6.163483 0.000000 0.000000 0.251571 0.239796 0.300896
ITEM: TIMESTEP
49
ITEM: NUMBER OF ATOMS
5
ITEM: BOX BOUNDS pp pp pp
0 10.000000
0 10.000000
0 10.000000
ITEM: ATOMS id x y z vx vy vz 
0 0.474555 5.000000 5.000000 0.618982 -1.953066 -0.870405
1 5.132399 0.000000 0.000000 -0.194704 0.884219 1.095459
2 4.666548 0.000000 0.000000 -1.013338 0.655515 -0.202013
3 8.437231 0.000000 0.000000 0.337489 0.173536 -0.323937
4 6.289268 0.000000 0.000000 0.251571 0.239796 0.300896
ITEM: TIMESTEP
50
ITEM: NUMBER OF ATOMS
5
ITEM: BOX BOUNDS pp pp pp
0 10.000000
0 10.000000
0 10.000000
ITEM: ATOMS id x y z vx vy vz 
0 0.784046 5.000000 5.000000 0.618982 -1.953066 -0.870405
1 5.035047 0.000000 0.000000 -0.194704 0.884219 1.095459
2 4.159879 0.000000 0.000000 -1.013338 0.655515 -0.202013
3 8.605976 0.000000 0.000000 0.337489 0.173536 -0.323937
4 6.415053 0.000000 0.000000 0.251571 0.239796 0.300896
ITEM: TIMESTEP
51
ITEM: NUMBER OF ATOMS
5
ITEM: BOX BOUNDS pp pp pp
0 10.000000
0 10.000000
0 10.000000
ITEM: ATOMS id x y z vx vy vz 
0 1.093537 5.000000 5.000000 0.618982 -1.953066 -0.870405
1 4.937695 0.000000 0.000000 -0.194704 0.884219 1.095459
2 3.653210 0.000000 0.000000 -1.013338 0.655515 -0.202013
3 8.774721 0.000000 0.000000 0.337489 0.173536 -0.323937
4 6.540839 0.000000 0.000000 0.251571 0.239796 0.300896
ITEM: TIMESTEP
52
ITEM: NUMBER OF ATOMS
5
ITEM: BOX BOUNDS pp pp pp
0 10.000000
0 10.000000
0 10.000000
ITEM: ATOMS id x y z vx vy vz 
0 1.403028 5.000000 5.000000 0.618982 -1.953066 -0.870405
1 4.840343 0.000000 0.000000 -0.194704 0.884219 1.095459
2 3.146541 0.000000 0.000000 -1.013338 0.655515 -0.202013
3 8.943466 0.000000 0.000000 0.337489 0.173536 -0.323937
4 6.666624 0.000000 0.000000 0.251571 0.239796 0.300896
ITEM: TIMESTEP
53
ITEM: NUMBER OF ATOMS
5
ITEM: BOX BOUNDS pp pp pp
0 10.000000
0 10.000000
0 10.000000
ITEM: ATOMS id x y z vx vy vz 
0 1.712519 5.000000 5.000000 0.618982 -1.953066 -0.870405
1 4.742990 0.000000 0.000000 -0.194704 0.884219 1.095459
2 2.639872 0.000000 0.000000 -1.013338 0.655515 -0.202013
3 9.112211 0.000000 0.000000 0.337489 0.173536 -0.323937
4 6.792409 0.000000 0.000000 0.251571 0.239796 0.300896
ITEM: TIMESTEP
54
ITEM: NUMBER OF ATOMS
5
ITEM: BOX BOUNDS pp pp pp
0 10.000000
0 10.000000
0 10.000000
ITEM: ATOMS id x y z vx vy vz 
0 2.022010 5.000000 5.000000 0.618982 -1.953066 -0.870405
1 4.645638 0.000000 0.000000 -0.194704 0.884219 1.095459
2 2.133203 0.000000 0.000000 -1.013338 0.655515 -0.202013
3 9.280956 0.000000 0.000000 0.337489 0.173536 -0.323937
4 6.918195 0.000000 0.000000 0.251571 0.239796 0.300896
ITEM: TIMESTEP
55
ITEM: NUMBER OF ATOMS
5
ITEM: BOX BOUNDS pp pp pp
0 10.000000
0 10.000000
0 10.000000
ITEM: ATOMS id x y z vx vy vz 
0 2.331501 5.000000 5.000000 0.618982 -1.953066 -0.870405
1 4.548286 0.000000 0.000000 -0.194704 0.884219 1.095459
2 1.626534 0.000000 0.000000 -1.013338 0.655515 -0.202013
3 9.449701 0.000000 0.000000 0.337489 0.173536 -0.323937
4 7.043980 0.000000 0.000000 0.251571 0.239796 0.300896
ITEM: TIMESTEP
56
ITEM: NUMBER OF ATOMS
5
ITEM: BOX BOUNDS pp pp pp
0 10.000000
0 10.000000
0 10.000000
ITEM: ATOMS id x y z vx vy vz 
0 2.640991 5.000000 5.000000 0.618982 -1.953066 -0.870405
1 4.450934 0.000000 0.000000 -0.194704 0.884219 1.095459
2 1.119864 0.000000 0.000000 -1.013338 0.655515 -0.202013
3 9.618446 0.000000 0.000000 0.337489 0.173536 -0.323937
4 7.169765 0.000000 0.000000 0.251571 0.239796 0.300896
ITEM: TIMESTEP
57
ITEM: NUMBER OF ATOMS
5
ITEM: BOX BOUNDS pp pp pp
0 10.000000
0 10.000000
0 10.000000
ITEM: ATOMS id x y z vx vy vz 
0 2.950482 5.000000 5.000000 0.618982 -1.953066 -0.870405
1 4.353582 0.000000 0.000000 -0.194704 0.884219 1.095459
2 0.613195 0.000000 0.000000 -1.013338 0.655515 -0.202013
3 9.787191 0.000000 0.000000 0.337489 0.173536 -0.323937
4 7.295551 0.000000 0.000000 0.251571 0.239796 0.300896
ITEM: TIMESTEP
58
ITEM: NUMBER OF ATOMS
5
ITEM: BOX BOUNDS pp pp pp
0 10.000000
0 10.000000
0 10.000000
ITEM: ATOMS id x y z vx vy vz 
0 3.259973 5.000000 5.000000 0.618982 -1.953066 -0.870405
1 4.256230 0.000000 0.000000 -0.194704 0.884219 1.095459
2 0.106526 0.000000 0.000000 -1.013338 0.655515 -0.202013
3 9.955936 0.000000 0.000000 0.337489 0.173536 -0.323937
4 7.421336 0.000000 0.000000 0.251571 0.239796 0.300896
ITEM: TIMESTEP
59
ITEM: NUMBER OF ATOMS
5
ITEM: BOX BOUNDS pp pp pp
0 10.000000
0 10.000000
0 10.000000
ITEM: ATOMS id x y z vx vy vz 
0 3.569464 5.000000 5.000000 0.618982 -1.953066 -0.870405
1 4.158878 0.000000 0.000000 -0.194704 0.884219 1.095459
2 9.599857 0.000000 0.000000 -1.013338 0.655515 -0.202013
3 0.124681 0.000000 0.000000 0.337489 0.173536 -0.323937
4 7.547122 0.000000 0.000000 0.251571 0.239796 0.300896
ITEM: TIMESTEP
60
ITEM: NUMBER OF ATOMS
5
ITEM: BOX BOUNDS pp pp pp
0 10.000000
0 10.000000
0 10.000000
ITEM: ATOMS id x y z vx vy vz 
0 3.878955 5.000000 5.000000 0.618982 -1.953066 -0.870405
1 4.061526 0.000000 0.000000 -0.194704 0.884219 1.095459
2 9.093188 0.000000 0.000000 -1.013338 0.655515 -0.202013
3 0.293426 0.000000 0.000000 0.337489 0.173536 -0.323937
4 7.672907 0.000000 0.000000 0.251571 0.239796 0.300896
ITEM: TIMESTEP
61
ITEM: NUMBER OF ATOMS
5
ITEM: BOX BOUNDS pp pp pp
0 10.000000
0 10.000000
0 10.000000
ITEM: ATOMS id x y z vx vy vz 
0 4.188446 5.000000 5.000000 0.618982 -1.953066 -0.870405
1 3.964174 0.000000 0.000000 -0.194704 0.884219 1.095459
2 8.586519 0.000000 0.000000 -1.013338 0.655515 -0.202013
3 0.462171 0.000000 0.000000 0.337489 0.173536 -0.323937
4 7.798692 0.000000 0.000000 0.251571 0.239796 0.300896
ITEM: TIMESTEP
62
ITEM: NUMBER OF ATOMS
5
ITEM: BOX BOUNDS pp pp pp
0 10.000000
0 10.000000
0 10.000000
ITEM: ATOMS id x y z vx vy vz 
0 4.497937 5.000000 5.000000 0.618982 -1.953066 -0.870405
1 3.866822 0.000000 0.000000 -0.194704 0.884219 1.095459
2 8.079850 0.000000 0.000000 -1.013338 0.655515 -0.202013
3 0.630916 0.000000 0.000000 0.337489 0.173536 -0.323937
4 7.924478 0.000000 0.000000 0.251571 0.239796 0.300896
ITEM: TIMESTEP
63
ITEM: NUMBER OF ATOMS
5
ITEM: BOX BOUNDS pp pp pp
0 10.000000
0 10.000000
0 10.000000
ITEM: ATOMS id x y z vx vy vz 
0 4.807428 5.000000 5.000000 0.618982 -1.953066 -0.870405
1 3.769470 0.000000 0.000000 -0.194704 0.884219 1.095459
2 7.573181 0.000000 0.000000 -1.013338 0.655515 -0.202013
3 0.799660 0.000000 0.000000 0.337489 0.173536 -0.323937
4 8.050263 0.000000 0.000000 0.251571 0.239796 0.300896
ITEM: TIMESTEP
64
ITEM: NUMBER OF ATOMS
5
ITEM: BOX BOUNDS pp pp pp
0 10.000000
0 10.000000
0 10.000000
ITEM: ATOMS id x y z vx vy vz 
0 5.116920 5.000000 5.000000 0.618982 -1.953066 -0.870405
1 3.672118 0.000000 0.000000 -0.194704 0.884219 1.095459
2 7.066512 0.000000 0.000000 -1.013338 0.655515 -0.202013
3 0.968405 0.000000 0.000000 0.337489 0.173536 -0.323937
4 8.176049 0.000000 0.000000 0.251571 0.239796 0.300896
ITEM: TIMESTEP
65
ITEM: NUMBER OF ATOMS
5
ITEM: BOX BOUNDS pp pp pp
0 10.000000
0 10.000000
0 10.000000
ITEM: ATOMS id x y z vx vy vz 
0 5.426411 5.000000 5.000000 0.618982 -1.953066 -0.870405
1 3.574766 0.000000 0.000000 -0.194704 0.884219 1.095459
2 6.559843 0.000000 0.000000 -1.013338 0.655515 -0.202013
3 1.137150 0.000000 0.000000 0.337489 0.173536 -0.323937
4 8.301835 0.000000 0.000000 0.251571 0.239796 0.300896
ITEM: TIMESTEP
66
ITEM: NUMBER OF ATOMS
5
ITEM: BOX BOUNDS pp pp pp
0 10.000000
0 10.000000
0 10.000000
ITEM: ATOMS id x y z vx vy vz 
0 5.735902 5.000000 5.000000 0.618982 -1.953066 -0.870405
1 3.477414 0.000000 0.000000 -0.194704 0.884219 1.095459
2 6.053174 0.000000 0.000000 -1.013338 0.655515 -0.202013
3 1.305894 0.000000 0.000000 0.337489 0.173536 -0.323937
4 8.427621 0.000000 0.000000 0.251571 0.239796 0.300896
ITEM: TIMESTEP
67
ITEM: NUMBER OF ATOMS
5
ITEM: BOX BOUNDS pp pp pp
0 10.000000
0 10.000000
0 10.000000
ITEM: ATOMS id x y z vx vy vz 
0 6.045393 5.000000 5.000000 0.618982 -1.953066 -0.870405
1 3.380062 0.000000 0.000000 -0.194704 0.884219 1.095459
2 5.546505 0.000000 0.000000 -1.013338 0.655515 -0.202013
3 1.474639 0.000000 0.000000 0.337489 0.173536 -0.323937
4 8.553407 0.000000 0.000000 0.251571 0.239796 0.300896
ITEM: TIMESTEP
68
ITEM: NUMBER OF ATOMS
5
ITEM: BOX BOUNDS pp pp pp
0 10.000000
0 10.000000
0 10.000000
ITEM: ATOMS id x y z vx vy vz 
0 6.354884 5.000000 5.000000 0.618982 -1.953066 -0.870405
1 3.282710 0.000000 0.000000 -0.194704 0.884219 1.095459
2 5.039836 0.000000 0.000000 -1.013338 0.655515 -0.202013
3 1.643384 0.000000 0.000000 0.337489 0.173536 -0.323937
4 8.679193 0.000000 0.000000 0.251571 0.239796 0.300896
ITEM: TIMESTEP
69
ITEM: NUMBER OF ATOMS
5
ITEM: BOX BOUNDS pp pp pp
0 10.000000
0 10.000000
0 10.000000
ITEM: ATOMS id x y z vx vy vz 
0 6.664375 5.000000 5.000000 0.618982 -1.953066 -0.870405
1 3.185358 0.000000 0.000000 -0.194704 0.884219 1.095459
2 4.533167 0.000000 0.000000 -1.013338 0.655515 -0.202013
3 1.812128 0.000000 0.000000 0.337489 0.173536 -0.323937
4 8.804978 0.000000 0.000000 0.251571 0.239796 0.300896
ITEM: TIMESTEP
70
ITEM: NUMBER OF ATOMS
5
ITEM: BOX BOUNDS pp pp pp
0 10.000000
0 10.000000
0 10.000000
ITEM: ATOMS id x y z vx vy vz 
0 6.973866 5.000000 5.000000 0.618982 -1.953066 -0.870405
1 3.088006 0.000000 0.000000 -0.194704 0.884219 1.095459
2 4.026498 0.000000 0.000000 -1.013338 0.655515 -0.202013
3 1.980873 0.000000 0.000000 0.337489 0.173536 -0.323937
4 8.930764 0.000000 0.000000 0.251571 0.239796 0.300896
ITEM: TIMESTEP
71
ITEM: NUMBER OF ATOMS
5
ITEM: BOX BOUNDS pp pp pp
0 10.000000
0 10.000000
0 10.000000