ITEM: TIMESTEP
0
ITEM: NUMBER OF ATOMS
125
ITEM: BOX BOUNDS pp pp pp
0 10.000000
0 10.000000
0 10.000000
ITEM: ATOMS id x y z vx vy vz 
0 1.008028 0.971684 0.985379 0.160554 -0.566319 -0.292414
1 0.995162 1.016546 3.016462 -0.096756 0.330910 0.329247
2 0.982218 1.012929 4.995947 -0.355631 0.258587 -0.081050
3 1.003577 1.005309 6.994020 0.071538 0.106172 -0.119606
4 1.002218 1.006356 9.003900 0.044368 0.127125 0.077984
5 1.004273 2.998082 1.009358 0.085451 -0.038367 0.187160
6 0.965850 2.987343 3.009622 -0.683001 -0.253136 0.192435
7 0.990053 3.000449 5.017667 -0.198944 0.008974 0.353340
8 1.001201 3.011373 7.003547 0.024028 0.227453 0.070933
9 0.994594 2.986411 9.017841 -0.108121 -0.271774 0.356818
10 0.993641 5.005577 0.998498 -0.127171 0.111543 -0.030030
11 1.008193 4.991169 2.994559 0.163863 -0.176617 -0.108822
12 1.004242 4.993689 4.982431 0.084838 -0.126220 -0.351374
13 1.014701 4.984615 6.971786 0.294014 -0.307698 -0.564292
14 1.017508 5.006992 8.978797 0.350151 0.139843 -0.424055
15 1.016477 7.007286 0.992597 0.329546 0.145711 -0.148054
16 1.002416 6.998449 2.986153 0.048312 -0.031020 -0.276937
17 1.018136 6.993930 4.978775 0.362721 -0.121399 -0.424500
18 1.023737 6.990586 7.018905 0.474741 -0.188288 0.378099
19 1.009147 6.991596 8.960565 0.182935 -0.168074 -0.788713
20 1.002012 9.012230 0.968835 0.040235 0.244590 -0.623305
21 1.019975 8.972232 3.023820 0.399501 -0.555366 0.476397
22 1.002262 9.002679 5.046265 0.045235 0.053577 0.925292
23 0.997382 8.998675 6.997271 -0.052364 -0.026495 -0.054588
24 0.991663 8.965891 8.996231 -0.166742 -0.682176 -0.075372
25 3.023889 1.030633 0.976531 0.477775 0.612662 -0.469377
26 2.980901 0.999026 2.996365 -0.381976 -0.019486 -0.072698
27 3.020813 1.008254 5.027470 0.416257 0.165089 0.549396
28 3.026367 0.992895 6.976851 0.527347 -0.142110 -0.462971
29 2.996834 1.002229 9.009668 -0.063317 0.044580 0.193366
30 2.985982 3.014368 0.992046 -0.280359 0.287364 -0.159070
31 2.981477 3.011432 3.010383 -0.370453 0.228648 0.207659
32 3.012743 2.990459 4.994983 0.254855 -0.190825 -0.100343
33 2.977998 2.993799 6.991415 -0.440047 -0.124011 -0.171704
34 3.050595 2.998567 9.016153 1.011890 -0.028662 0.323073
35 2.993084 5.005930 0.988013 -0.138314 0.118604 -0.239734
36 3.009568 4.990483 2.998503 0.191361 -0.190339 -0.029945
37 3.010179 5.015157 4.981868 0.203571 0.303137 -0.362643
38 3.010659 5.012135 6.995569 0.213170 0.242698 -0.088619
39 2.998465 4.987034 8.973223 -0.030692 -0.259310 -0.535536
40 3.021697 7.023806 0.967358 0.433933 0.476115 -0.652843
41 3.014888 6.967924 2.980394 0.297767 -0.641527 -0.392128
42 3.006836 7.019063 5.002171 0.136714 0.381264 0.043414
43 3.006240 6.986153 7.024044 0.124800 -0.276944 0.480880
44 2.997478 6.997483 8.991099 -0.050430 -0.050345 -0.178015
45 2.974904 8.976393 0.997756 -0.501925 -0.472155 -0.044873
46 3.012121 8.987095 3.016425 0.242412 -0.258094 0.328507
47 2.976755 9.018452 5.019162 -0.464902 0.369043 0.383237
48 2.977751 9.000737 6.995673 -0.444974 0.014746 -0.086547
49 2.991234 9.003879 9.002665 -0.175326 0.077575 0.053298
50 4.978661 0.983666 0.998423 -0.426780 -0.326685 -0.031541
51 4.998127 0.991518 2.966054 -0.037448 -0.169639 -0.678913
52 4.998003 1.017679 5.002821 -0.039953 0.353587 0.056428
53 4.989336 0.984403 7.002559 -0.213280 -0.311937 0.051184
54 4.997579 1.007703 9.006566 -0.048421 0.154052 0.131330
55 5.007621 2.990738 1.010322 0.152414 -0.185233 0.206433
56 4.986205 2.964790 3.004117 -0.275897 -0.704198 0.082339
57 4.992604 3.019307 4.998820 -0.147914 0.386138 -0.023602
58 4.986778 2.990293 6.982805 -0.264437 -0.194145 -0.343899
59 4.993679 2.988777 9.007668 -0.126421 -0.224465 0.153351
60 4.985417 5.018527 1.003837 -0.291660 0.370544 0.076747
61 4.975813 4.997943 2.989610 -0.483741 -0.041137 -0.207807
62 4.997993 4.998899 5.001230 -0.040143 -0.022023 0.024596
63 5.003100 5.001055 7.009573 0.062002 0.021099 0.191452
64 4.990991 5.037917 9.005586 -0.180179 0.758343 0.111708
65 4.991375 6.976173 1.020347 -0.172504 -0.476531 0.406950
66 4.999865 7.004181 2.992688 -0.002698 0.083622 -0.146236
67 5.022626 7.011730 5.034450 0.452529 0.234599 0.688999
68 4.991307 7.022077 7.011876 -0.173857 0.441545 0.237525
69 4.979480 6.996259 9.004677 -0.410404 -0.074830 0.093546
70 5.020439 9.006269 0.984708 0.408783 0.125370 -0.305830
71 5.012105 9.016595 3.007723 0.242106 0.331893 0.154461
72 5.021495 8.991797 5.002080 0.429905 -0.164057 0.041595
73 4.989622 8.989015 7.008782 -0.207571 -0.219708 0.175647
74 4.990864 9.000783 9.025319 -0.182727 0.015666 0.506390
75 6.985270 1.009674 1.009304 -0.294610 0.193475 0.186082
76 7.004972 1.005390 3.009963 0.099427 0.107800 0.199254
77 6.982080 1.000755 5.029050 -0.358401 0.015095 0.580996
78 7.035118 1.009833 7.015923 0.702354 0.196657 0.318463
79 6.999588 0.965505 8.997147 -0.008227 -0.689894 -0.057072
80 7.006359 2.996966 1.006360 0.127178 -0.060685 0.127196
81 6.988815 3.017493 2.990579 -0.223693 0.349865 -0.188418
82 7.045235 2.970098 4.972873 0.904690 -0.598035 -0.542535
83 7.020545 3.007611 7.011440 0.410908 0.152223 0.228792
84 6.995073 3.008789 8.985382 -0.098532 0.175788 -0.292351
85 6.958256 5.010029 0.983865 -0.834877 0.200590 -0.322692
86 6.997006 5.014982 3.007580 -0.059871 0.299649 0.151596
87 6.989430 4.983725 4.976095 -0.211398 -0.325511 -0.478110
88 6.985659 5.003587 6.976991 -0.286818 0.071739 -0.460190
89 7.011465 5.026619 8.960185 0.229292 0.532389 -0.796293
90 7.001545 6.990289 1.007834 0.030900 -0.194219 0.156681
91 6.973409 7.006666 2.998209 -0.531822 0.133321 -0.035812
92 7.000571 7.001622 5.020616 0.011426 0.032443 0.412321
93 7.001122 7.004218 6.994260 0.022443 0.084351 -0.114795
94 7.006080 7.022172 9.024958 0.121607 0.443437 0.499159
95 7.016809 9.003595 0.970360 0.336185 0.071898 -0.592805
96 6.993992 8.988279 3.013196 -0.120162 -0.234413 0.263912
97 6.984207 8.991075 4.988304 -0.315859 -0.178509 -0.233930
98 6.992754 9.006835 7.015747 -0.144922 0.136704 0.314943
99 7.022714 8.988404 9.017296 0.454274 -0.231918 0.345908
100 8.979166 1.007836 1.003220 -0.416673 0.156727 0.064409
101 8.980174 1.018589 2.995310 -0.396512 0.371781 -0.093810
102 8.999857 0.996605 4.995787 -0.002856 -0.067905 -0.084263
103 8.976646 1.018018 6.985642 -0.467069 0.360363 -0.287160
104 8.995520 1.027734 9.012785 -0.089610 0.554686 0.255698
105 8.967307 2.986153 1.001046 -0.653865 -0.276944 0.020927
106 9.000190 3.027394 3.015238 0.003804 0.547888 0.304762
107 8.992712 3.005777 5.003182 -0.145757 0.115549 0.063648
108 9.002162 3.006384 7.011211 0.043248 0.127675 0.224215
109 9.030613 3.009323 9.030822 0.612260 0.186466 0.616433
110 8.982914 4.993807 0.991704 -0.341729 -0.123852 -0.165910
111 9.008996 5.015497 2.994548 0.179922 0.309935 -0.109033
112 8.974908 4.991263 5.005566 -0.501851 -0.174745 0.111317
113 8.985779 4.984237 7.009435 -0.284429 -0.315267 0.188704
114 9.013780 4.970249 9.006464 0.275587 -0.595021 0.129279
115 8.998253 6.979592 0.989340 -0.034942 -0.408163 -0.213199
116 8.998975 6.987522 2.988300 -0.020501 -0.249563 -0.234004
117 9.020716 6.996402 4.997847 0.414322 -0.071954 -0.043065
118 8.996556 7.008080 6.990103 -0.068878 0.161590 -0.197933
119 9.001065 7.001789 9.010221 0.021300 0.035774 0.204424
120 8.993610 9.012794 1.001794 -0.127795 0.255891 0.035886
121 9.033716 8.980377 2.992497 0.674318 -0.392453 -0.150053
122 9.019046 9.015049 4.992764 0.380915 0.300981 -0.144714
123 8.998770 8.997306 7.025955 -0.024603 -0.053877 0.519108
124 9.021288 8.974454 9.008040 0.425761 -0.510922 0.160804
ITEM: TIMESTEP
1
ITEM: NUMBER OF ATOMS
125
ITEM: BOX BOUNDS pp pp pp
0 10.000000
0 10.000000
0 10.000000
ITEM: ATOMS id x y z vx vy vz 
0 1.016055 0.943368 0.970759 0.160554 -0.566319 -0.292414
1 0.990324 1.033091 3.032925 -0.096756 0.330910 0.329247
2 0.964437 1.025859 4.991895 -0.355631 0.258587 -0.081050
3 1.007154 1.010617 6.988039 0.071538 0.106172 -0.119606
4 1.004437 1.012712 9.007799 0.044368 0.127125 0.077984
5 1.008545 2.996163 1.018716 0.085451 -0.038367 0.187160
6 0.931700 2.974687 3.019244 -0.683001 -0.253136 0.192435
7 0.980106 3.000897 5.035334 -0.198944 0.008974 0.353340
8 1.002403 3.022745 7.007093 0.024028 0.227453 0.070933
9 0.989188 2.972823 9.035683 -0.108121 -0.271774 0.356818
10 0.987283 5.011154 0.996997 -0.127171 0.111543 -0.030030
11 1.016386 4.982338 2.989118 0.163863 -0.176617 -0.108822
12 1.008484 4.987378 4.964863 0.084838 -0.126220 -0.351374
13 1.029401 4.969231 6.943571 0.294014 -0.307698 -0.564292
14 1.035015 5.013985 8.957594 0.350151 0.139843 -0.424055
15 1.032955 7.014571 0.985195 0.329546 0.145711 -0.148054
16 1.004831 6.996898 2.972306 0.048312 -0.031020 -0.276937
17 1.036272 6.987860 4.957550 0.362721 -0.121399 -0.424500
18 1.047474 6.981172 7.037810 0.474741 -0.188288 0.378099
19 1.018293 6.983192 8.921129 0.182935 -0.168074 -0.788713
20 1.004024 9.024460 0.937670 0.040235 0.244590 -0.623305
21 1.039950 8.944464 3.047640 0.399501 -0.555366 0.476397
22 1.004524 9.005358 5.092529 0.045235 0.053577 0.925292
23 0.994764 8.997351 6.994541 -0.052364 -0.026495 -0.054588
24 0.983326 8.931782 8.992462 -0.166742 -0.682176 -0.075372
25 3.047778 1.061266 0.953062 0.477775 0.612662 -0.469377
26 2.961802 0.998051 2.992730 -0.381976 -0.019486 -0.072698
27 3.041625 1.016509 5.054939 0.416257 0.165089 0.549396
28 3.052735 0.985789 6.953703 0.527347 -0.142110 -0.462971
29 2.993668 1.004458 9.019337 -0.063317 0.044580 0.193366
30 2.971964 3.028737 0.984093 -0.280359 0.287364 -0.159070
31 2.962955 3.022865 3.020766 -0.370453 0.228648 0.207659
32 3.025486 2.980917 4.989965 0.254855 -0.190825 -0.100343
33 2.955995 2.987599 6.982830 -0.440047 -0.124011 -0.171704
34 3.101189 2.997134 9.032307 1.011890 -0.028662 0.323073
35 2.986168 5.011861 0.976027 -0.138314 0.118604 -0.239734
36 3.019136 4.980967 2.997005 0.191361 -0.190339 -0.029945
37 3.020357 5.030313 4.963736 0.203571 0.303137 -0.362643
38 3.021317 5.024270 6.991138 0.213170 0.242698 -0.088619
39 2.996931 4.974069 8.946445 -0.030692 -0.259310 -0.535536
40 3.043393 7.047611 0.934716 0.433933 0.476115 -0.652843
41 3.029777 6.935847 2.960787 0.297767 -0.641527 -0.392128
42 3.013671 7.038126 5.004341 0.136714 0.381264 0.043414
43 3.012480 6.972305 7.048088 0.124800 -0.276944 0.480880
44 2.994957 6.994966 8.982199 -0.050430 -0.050345 -0.178015
45 2.949808 8.952785 0.995513 -0.501925 -0.472155 -0.044873
46 3.024241 8.974190 3.032851 0.242412 -0.258094 0.328507
47 2.953510 9.036903 5.038323 -0.464902 0.369043 0.383237
48 2.955503 9.001474 6.991345 -0.444974 0.014746 -0.086547
49 2.982467 9.007757 9.005329 -0.175326 0.077575 0.053298
50 4.957322 0.967332 0.996846 -0.426780 -0.326685 -0.031541
51 4.996255 0.983036 2.932109 -0.037448 -0.169639 -0.678913
52 4.996005 1.035359 5.005643 -0.039953 0.353587 0.056428
53 4.978672 0.968806 7.005118 -0.213280 -0.311937 0.051184
54 4.995158 1.015405 9.013132 -0.048421 0.154052 0.131330
55 5.015242 2.981477 1.020643 0.152414 -0.185233 0.206433
56 4.972410 2.929580 3.008234 -0.275897 -0.704198 0.082339
57 4.985209 3.038614 4.997640 -0.147914 0.386138 -0.023602
58 4.973557 2.980586 6.965611 -0.264437 -0.194145 -0.343899
59 4.987358 2.977553 9.015335 -0.126421 -0.224465 0.153351
60 4.970834 5.037054 1.007675 -0.291660 0.370544 0.076747
61 4.951626 4.995886 2.979219 -0.483741 -0.041137 -0.207807
62 4.995986 4.997798 5.002460 -0.040143 -0.022023 0.024596
63 5.006200 5.002110 7.019145 0.062002 0.021099 0.191452
64 4.981982 5.075834 9.011171 -0.180179 0.758343 0.111708
65 4.982750 6.952347 1.040695 -0.172504 -0.476531 0.406950
66 4.999730 7.008362 2.985376 -0.002698 0.083622 -0.146236
67 5.045253 7.023460 5.068900 0.452529 0.234599 0.688999
68 4.982615 7.044154 7.023752 -0.173857 0.441545 0.237525
69 4.958960 6.992517 9.009354 -0.410404 -0.074830 0.093546
70 5.040878 9.012537 0.969417 0.408783 0.125370 -0.305830
71 5.024211 9.033190 3.015446 0.242106 0.331893 0.154461
72 5.042991 8.983595 5.004160 0.429905 -0.164057 0.041595
73 4.979243 8.978029 7.017565 -0.207571 -0.219708 0.175647
74 4.981728 9.001566 9.050638 -0.182727 0.015666 0.506390
75 6.970539 1.019347 1.018608 -0.294610 0.193475 0.186082
76 7.009943 1.010780 3.019926 0.099427 0.107800 0.199254
77 6.964160 1.001509 5.058100 -0.358401 0.015095 0.580996
78 7.070235 1.019666 7.031846 0.702354 0.196657 0.318463
79 6.999177 0.931011 8.994293 -0.008227 -0.689894 -0.057072
80 7.012718 2.993931 1.012720 0.127178 -0.060685 0.127196
81 6.977631 3.034986 2.981158 -0.223693 0.349865 -0.188418
82 7.090469 2.940197 4.945746 0.904690 -0.598035 -0.542535
83 7.041091 3.015222 7.022880 0.410908 0.152223 0.228792
84 6.990147 3.017579 8.970764 -0.098532 0.175788 -0.292351
85 6.916512 5.020059 0.967731 -0.834877 0.200590 -0.322692
86 6.994013 5.029964 3.015160 -0.059871 0.299649 0.151596
87 6.978860 4.967449 4.952189 -0.211398 -0.325511 -0.478110
88 6.971318 5.007174 6.953981 -0.286818 0.071739 -0.460190
89 7.022929 5.053239 8.920370 0.229292 0.532389 -0.796293
90 7.003090 6.980578 1.015668 0.030900 -0.194219 0.156681
91 6.946817 7.013332 2.996419 -0.531822 0.133321 -0.035812
92 7.001143 7.003244 5.041232 0.011426 0.032443 0.412321
93 7.002244 7.008435 6.988521 0.022443 0.084351 -0.114795
94 7.012160 7.044344 9.049915 0.121607 0.443437 0.499159
95 7.033619 9.007191 0.940719 0.336185 0.071898 -0.592805
96 6.987984 8.976559 3.026391 -0.120162 -0.234413 0.263912
97 6.968414 8.982149 4.976607 -0.315859 -0.178509 -0.233930
98 6.985508 9.013670 7.031494 -0.144922 0.136704 0.314943
99 7.045427 8.976809 9.034592 0.454274 -0.231918 0.345908
100 8.958332 1.015673 1.006441 -0.416673 0.156727 0.064409
101 8.960348 1.037178 2.990619 -0.396512 0.371781 -0.093810
102 8.999714 0.993209 4.991573 -0.002856 -0.067905 -0.084263
103 8.953293 1.036036 6.971284 -0.467069 0.360363 -0.287160
104 8.991039 1.055469 9.025570 -0.089610 0.554686 0.255698
105 8.934614 2.972306 1.002093 -0.653865 -0.276944 0.020927
106 9.000380 3.054789 3.030476 0.003804 0.547888 0.304762
107 8.985424 3.011555 5.006365 -0.145757 0.115549 0.063648
108 9.004324 3.012767 7.022422 0.043248 0.127675 0.224215
109 9.061226 3.018647 9.061644 0.612260 0.186466 0.616433
110 8.965828 4.987615 0.983409 -0.341729 -0.123852 -0.165910
111 9.017992 5.030993 2.989097 0.179922 0.309935 -0.109033
112 8.949816 4.982526 5.011131 -0.501851 -0.174745 0.111317
113 8.971558 4.968473 7.018870 -0.284429 -0.315267 0.188704
114 9.027559 4.940497 9.012928 0.275587 -0.595021 0.129279
115 8.996506 6.959184 0.978680 -0.034942 -0.408163 -0.213199
116 8.997950 6.975043 2.976600 -0.020501 -0.249563 -0.234004
117 9.041431 6.992805 4.995693 0.414322 -0.071954 -0.043065
118 8.993113 7.016159 6.980206 -0.068878 0.161590 -0.197933
119 9.002131 7.003577 9.020443 0.021300 0.035774 0.204424
120 8.987221 9.025589 1.003589 -0.127795 0.255891 0.035886
121 9.067432 8.960754 2.984995 0.674318 -0.392453 -0.150053
122 9.038092 9.030098 4.985529 0.380915 0.300981 -0.144714
123 8.997540 8.994612 7.051910 -0.024603 -0.053877 0.519108
124 9.042576 8.948908 9.016081 0.425761 -0.510922 0.160804
ITEM: TIMESTEP
2
ITEM: NUMBER OF ATOMS
125
ITEM: BOX BOUNDS pp pp pp
0 10.000000
0 10.000000
0 10.000000
ITEM: ATOMS id x y z vx vy vz 
0 1.024083 0.915052 0.956138 0.160554 -0.566319 -0.292414
1 0.985487 1.049637 3.049387 -0.096756 0.330910 0.329247
2 0.946655 1.038788 4.987842 -0.355631 0.258587 -0.081050
3 1.010731 1.015926 6.982059 0.071538 0.106172 -0.119606
4 1.006655 1.019069 9.011699 0.044368 0.127125 0.077984
5 1.012818 2.994245 1.028074 0.085451 -0.038367 0.187160
6 0.897550 2.962030 3.028866 -0.683001 -0.253136 0.192435
7 0.970158 3.001346 5.053000 -0.198944 0.008974 0.353340
8 1.003604 3.034118 7.010640 0.024028 0.227453 0.070933
9 0.983782 2.959234 9.053524 -0.108121 -0.271774 0.356818
10 0.980924 5.016731 0.995495 -0.127171 0.111543 -0.030030
11 1.024579 4.973507 2.983676 0.163863 -0.176617 -0.108822
12 1.012726 4.981067 4.947294 0.084838 -0.126220 -0.351374
13 1.044102 4.953846 6.915357 0.294014 -0.307698 -0.564292
14 1.052523 5.020977 8.936391 0.350151 0.139843 -0.424055
15 1.049432 7.021857 0.977792 0.329546 0.145711 -0.148054
16 1.007247 6.995347 2.958459 0.048312 -0.031020 -0.276937
17 1.054408 6.981790 4.936325 0.362721 -0.121399 -0.424500
18 1.071211 6.971757 7.056715 0.474741 -0.188288 0.378099
19 1.027440 6.974789 8.881694 0.182935 -0.168074 -0.788713
20 1.006035 9.036690 0.906504 0.040235 0.244590 -0.623305
21 1.059925 8.916696 3.071460 0.399501 -0.555366 0.476397
22 1.006785 9.008037 5.138794 0.045235 0.053577 0.925292
23 0.992145 8.996026 6.991812 -0.052364 -0.026495 -0.054588
24 0.974989 8.897673 8.988693 -0.166742 -0.682176 -0.075372
25 3.071666 1.091899 0.929593 0.477775 0.612662 -0.469377
26 2.942704 0.997077 2.989095 -0.381976 -0.019486 -0.072698
27 3.062438 1.024763 5.082409 0.416257 0.165089 0.549396
28 3.079102 0.978684 6.930554 0.527347 -0.142110 -0.462971
29 2.990502 1.006687 9.029005 -0.063317 0.044580 0.193366
30 2.957947 3.043105 0.976139 -0.280359 0.287364 -0.159070
31 2.944432 3.034297 3.031149 -0.370453 0.228648 0.207659
32 3.038228 2.971376 4.984948 0.254855 -0.190825 -0.100343
33 2.933993 2.981398 6.974245 -0.440047 -0.124011 -0.171704
34 3.151784 2.995701 9.048460 1.011890 -0.028662 0.323073
35 2.979253 5.017791 0.964040 -0.138314 0.118604 -0.239734
36 3.028704 4.971450 2.995508 0.191361 -0.190339 -0.029945
37 3.030536 5.045470 4.945603 0.203571 0.303137 -0.362643
38 3.031976 5.036405 6.986708 0.213170 0.242698 -0.088619
39 2.995396 4.961103 8.919668 -0.030692 -0.259310 -0.535536
40 3.065090 7.071417 0.902074 0.433933 0.476115 -0.652843
41 3.044665 6.903771 2.941181 0.297767 -0.641527 -0.392128
42 3.020507 7.057189 5.006512 0.136714 0.381264 0.043414
43 3.018720 6.958458 7.072132 0.124800 -0.276944 0.480880
44 2.992435 6.992448 8.973298 -0.050430 -0.050345 -0.178015
45 2.924711 8.929178 0.993269 -0.501925 -0.472155 -0.044873
46 3.036362 8.961285 3.049276 0.242412 -0.258094 0.328507
47 2.930265 9.055355 5.057485 -0.464902 0.369043 0.383237
48 2.933254 9.002212 6.987018 -0.444974 0.014746 -0.086547
49 2.973701 9.011636 9.007994 -0.175326 0.077575 0.053298
50 4.935983 0.950997 0.995269 -0.426780 -0.326685 -0.031541
51 4.994382 0.974554 2.898163 -0.037448 -0.169639 -0.678913
52 4.994008 1.053038 5.008464 -0.039953 0.353587 0.056428
53 4.968008 0.953209 7.007678 -0.213280 -0.311937 0.051184
54 4.992737 1.023108 9.019698 -0.048421 0.154052 0.131330
55 5.022862 2.972215 1.030965 0.152414 -0.185233 0.206433
56 4.958615 2.894370 3.012351 -0.275897 -0.704198 0.082339
57 4.977813 3.057921 4.996459 -0.147914 0.386138 -0.023602
58 4.960335 2.970878 6.948416 -0.264437 -0.194145 -0.343899
59 4.981037 2.966330 9.023003 -0.126421 -0.224465 0.153351
60 4.956251 5.055581 1.011512 -0.291660 0.370544 0.076747
61 4.927439 4.993829 2.968829 -0.483741 -0.041137 -0.207807
62 4.993979 4.996697 5.003689 -0.040143 -0.022023 0.024596
63 5.009300 5.003164 7.028718 0.062002 0.021099 0.191452
64 4.972973 5.113751 9.016757 -0.180179 0.758343 0.111708
65 4.974125 6.928520 1.061042 -0.172504 -0.476531 0.406950
66 4.999595 7.012543 2.978065 -0.002698 0.083622 -0.146236
67 5.067879 7.035191 5.103350 0.452529 0.234599 0.688999
68 4.973922 7.066231 7.035628 -0.173857 0.441545 0.237525
69 4.938439 6.988776 9.014030 -0.410404 -0.074830 0.093546
70 5.061317 9.018806 0.954125 0.408783 0.125370 -0.305830
71 5.036316 9.049785 3.023169 0.242106 0.331893 0.154461
72 5.064486 8.975392 5.006240 0.429905 -0.164057 0.041595
73 4.968865 8.967044 7.026347 -0.207571 -0.219708 0.175647
74 4.972591 9.002349 9.075957 -0.182727 0.015666 0.506390
75 6.955809 1.029021 1.027912 -0.294610 0.193475 0.186082
76 7.014915 1.016170 3.029888 0.099427 0.107800 0.199254
77 6.946240 1.002264 5.087150 -0.358401 0.015095 0.580996
78 7.105353 1.029499 7.047769 0.702354 0.196657 0.318463
79 6.998765 0.896516 8.991440 -0.008227 -0.689894 -0.057072
80 7.019077 2.990897 1.019079 0.127178 -0.060685 0.127196
81 6.966446 3.052480 2.971737 -0.223693 0.349865 -0.188418
82 7.135704 2.910295 4.918620 0.904690 -0.598035 -0.542535
83 7.061636 3.022833 7.034319 0.410908 0.152223 0.228792
84 6.985220 3.026368 8.956146 -0.098532 0.175788 -0.292351
85 6.874769 5.030088 0.951596 -0.834877 0.200590 -0.322692
86 6.991019 5.044947 3.022739 -0.059871 0.299649 0.151596
87 6.968290 4.951174 4.928284 -0.211398 -0.325511 -0.478110
88 6.956977 5.010760 6.930972 -0.286818 0.071739 -0.460190
89 7.034394 5.079858 8.880555 0.229292 0.532389 -0.796293
90 7.004635 6.970868 1.023502 0.030900 -0.194219 0.156681
91 6.920226 7.019999 2.994628 -0.531822 0.133321 -0.035812
92 7.001714 7.004867 5.061848 0.011426 0.032443 0.412321
93 7.003366 7.012653 6.982781 0.022443 0.084351 -0.114795
94 7.018240 7.066516 9.074873 0.121607 0.443437 0.499159
95 7.050428 9.010786 0.911079 0.336185 0.071898 -0.592805
96 6.981976 8.964838 3.039587 -0.120162 -0.234413 0.263912
97 6.952621 8.973224 4.964911 -0.315859 -0.178509 -0.233930
98 6.978262 9.020505 7.047241 -0.144922 0.136704 0.314943
99 7.068141 8.965213 9.051888 0.454274 -0.231918 0.345908
100 8.937498 1.023509 1.009661 -0.416673 0.156727 0.064409
101 8.940522 1.055767 2.985929 -0.396512 0.371781 -0.093810
102 8.999571 0.989814 4.987360 -0.002856 -0.067905 -0.084263
103 8.929939 1.054054 6.956926 -0.467069 0.360363 -0.287160
104 8.986559 1.083203 9.038355 -0.089610 0.554686 0.255698
105 8.901921 2.958459 1.003139 -0.653865 -0.276944 0.020927
106 9.000569 3.082183 3.045714 0.003804 0.547888 0.304762
107 8.978136 3.017332 5.009547 -0.145757 0.115549 0.063648
108 9.006486 3.019151 7.033633 0.043248 0.127675 0.224215
109 9.091839 3.027970 9.092465 0.612260 0.186466 0.616433
110 8.948742 4.981422 0.975113 -0.341729 -0.123852 -0.165910
111 9.026988 5.046490 2.983645 0.179922 0.309935 -0.109033
112 8.924724 4.973789 5.016697 -0.501851 -0.174745 0.111317
113 8.957336 4.952710 7.028306 -0.284429 -0.315267 0.188704
114 9.041339 4.910746 9.019392 0.275587 -0.595021 0.129279
115 8.994759 6.938776 0.968020 -0.034942 -0.408163 -0.213199
116 8.996924 6.962565 2.964900 -0.020501 -0.249563 -0.234004
117 9.062147 6.989207 4.993540 0.414322 -0.071954 -0.043065
118 8.989669 7.024239 6.970310 -0.068878 0.161590 -0.197933
119 9.003196 7.005366 9.030664 0.021300 0.035774 0.204424
120 8.980831 9.038383 1.005383 -0.127795 0.255891 0.035886
121 9.101149 8.941132 2.977492 0.674318 -0.392453 -0.150053
122 9.057137 9.045147 4.978293 0.380915 0.300981 -0.144714
123 8.996309 8.991918 7.077866 -0.024603 -0.053877 0.519108
124 9.063864 8.923362 9.024121 0.425761 -0.510922 0.160804
ITEM: TIMESTEP
3
ITEM: NUMBER OF ATOMS
125
ITEM: BOX BOUNDS pp pp pp
0 10.000000
0 10.000000
0 10.000000
ITEM: ATOMS id x y z vx vy vz 
0 1.032111 0.886736 0.941517 0.160554 -0.566319 -0.292414
1 0.980649 1.066182 3.065849 -0.096756 0.330910 0.329247
2 0.928874 1.051717 4.983789 -0.355631 0.258587 -0.081050
3 1.014307 1.021235 6.976078 0.071538 0.106172 -0.119606
4 1.008873 1.025425 9.015598 0.044368 0.127125 0.077984
5 1.017090 2.992327 1.037432 0.085451 -0.038367 0.187160
6 0.863400 2.949373 3.038487 -0.683001 -0.253136 0.192435
7 0.960211 3.001795 5.070667 -0.198944 0.008974 0.353340
8 1.004806 3.045490 7.014187 0.024028 0.227453 0.070933
9 0.978376 2.945645 9.071365 -0.108121 -0.271774 0.356818
10 0.974566 5.022308 0.993994 -0.127171 0.111543 -0.030030
11 1.032773 4.964676 2.978235 0.163863 -0.176617 -0.108822
12 1.016968 4.974756 4.929726 0.084838 -0.126220 -0.351374
13 1.058803 4.938461 6.887142 0.294014 -0.307698 -0.564292
14 1.070030 5.027969 8.915188 0.350151 0.139843 -0.424055
15 1.065909 7.029142 0.970389 0.329546 0.145711 -0.148054
16 1.009662 6.993795 2.944613 0.048312 -0.031020 -0.276937
17 1.072544 6.975719 4.915100 0.362721 -0.121399 -0.424500
18 1.094948 6.962343 7.075621 0.474741 -0.188288 0.378099
19 1.036587 6.966385 8.842258 0.182935 -0.168074 -0.788713
20 1.008047 9.048920 0.875339 0.040235 0.244590 -0.623305
21 1.079900 8.888927 3.095280 0.399501 -0.555366 0.476397
22 1.009047 9.010715 5.185059 0.045235 0.053577 0.925292
23 0.989527 8.994701 6.989082 -0.052364 -0.026495 -0.054588
24 0.966651 8.863564 8.984924 -0.166742 -0.682176 -0.075372
25 3.095555 1.122532 0.906125 0.477775 0.612662 -0.469377
26 2.923605 0.996103 2.985460 -0.381976 -0.019486 -0.072698
27 3.083251 1.033018 5.109879 0.416257 0.165089 0.549396
28 3.105470 0.971578 6.907406 0.527347 -0.142110 -0.462971
29 2.987336 1.008916 9.038673 -0.063317 0.044580 0.193366
30 2.943929 3.057473 0.968186 -0.280359 0.287364 -0.159070
31 2.925909 3.045730 3.041532 -0.370453 0.228648 0.207659
32 3.050971 2.961835 4.979931 0.254855 -0.190825 -0.100343
33 2.911990 2.975198 6.965660 -0.440047 -0.124011 -0.171704
34 3.202378 2.994267 9.064613 1.011890 -0.028662 0.323073
35 2.972337 5.023722 0.952053 -0.138314 0.118604 -0.239734
36 3.038272 4.961933 2.994011 0.191361 -0.190339 -0.029945
37 3.040714 5.060627 4.927471 0.203571 0.303137 -0.362643
38 3.042634 5.048540 6.982277 0.213170 0.242698 -0.088619
39 2.993861 4.948137 8.892891 -0.030692 -0.259310 -0.535536
40 3.086786 7.095222 0.869431 0.433933 0.476115 -0.652843
41 3.059553 6.871695 2.921575 0.297767 -0.641527 -0.392128
42 3.027343 7.076252 5.008682 0.136714 0.381264 0.043414
43 3.024960 6.944611 7.096176 0.124800 -0.276944 0.480880
44 2.989914 6.989931 8.964397 -0.050430 -0.050345 -0.178015
45 2.899615 8.905571 0.991025 -0.501925 -0.472155 -0.044873
46 3.048483 8.948380 3.065701 0.242412 -0.258094 0.328507
47 2.907020 9.073807 5.076647 -0.464902 0.369043 0.383237
48 2.911005 9.002949 6.982691 -0.444974 0.014746 -0.086547
49 2.964934 9.015514 9.010658 -0.175326 0.077575 0.053298
50 4.914644 0.934663 0.993692 -0.426780 -0.326685 -0.031541
51 4.992510 0.966072 2.864218 -0.037448 -0.169639 -0.678913
52 4.992010 1.070717 5.011286 -0.039953 0.353587 0.056428
53 4.957344 0.937613 7.010237 -0.213280 -0.311937 0.051184
54 4.990316 1.030810 9.026264 -0.048421 0.154052 0.131330
55 5.030483 2.962954 1.041286 0.152414 -0.185233 0.206433
56 4.944820 2.859160 3.016468 -0.275897 -0.704198 0.082339
57 4.970417 3.077228 4.995279 -0.147914 0.386138 -0.023602
58 4.947113 2.961171 6.931221 -0.264437 -0.194145 -0.343899
59 4.974716 2.955107 9.030670 -0.126421 -0.224465 0.153351
60 4.941668 5.074108 1.015349 -0.291660 0.370544 0.076747
61 4.903252 4.991772 2.958439 -0.483741 -0.041137 -0.207807
62 4.991972 4.995596 5.004919 -0.040143 -0.022023 0.024596
63 5.012400 5.004219 7.038290 0.062002 0.021099 0.191452
64 4.963964 5.151669 9.022343 -0.180179 0.758343 0.111708
65 4.965500 6.904694 1.081390 -0.172504 -0.476531 0.406950
66 4.999460 7.016724 2.970753 -0.002698 0.083622 -0.146236
67 5.090506 7.046921 5.137800 0.452529 0.234599 0.688999
68 4.965229 7.088308 7.047504 -0.173857 0.441545 0.237525
69 4.917919 6.985035 9.018707 -0.410404 -0.074830 0.093546
70 5.081757 9.025074 0.938834 0.408783 0.125370 -0.305830
71 5.048422 9.066380 3.030892 0.242106 0.331893 0.154461
72 5.085981 8.967190 5.008320 0.429905 -0.164057 0.041595
73 4.958487 8.956059 7.035130 -0.207571 -0.219708 0.175647
74 4.963455 9.003132 9.101276 -0.182727 0.015666 0.506390
75 6.941078 1.038695 1.037216 -0.294610 0.193475 0.186082
76 7.019886 1.021560 3.039851 0.099427 0.107800 0.199254
77 6.928320 1.003019 5.116199 -0.358401 0.015095 0.580996
78 7.140471 1.039331 7.063692 0.702354 0.196657 0.318463
79 6.998354 0.862021 8.988586 -0.008227 -0.689894 -0.057072
80 7.025436 2.987863 1.025439 0.127178 -0.060685 0.127196
81 6.955261 3.069973 2.962317 -0.223693 0.349865 -0.188418
82 7.180939 2.880393 4.891493 0.904690 -0.598035 -0.542535
83 7.082182 3.030444 7.045759 0.410908 0.152223 0.228792
84 6.980293 3.035157 8.941528 -0.098532 0.175788 -0.292351
85 6.833025 5.040117 0.935462 -0.834877 0.200590 -0.322692
86 6.988026 5.059929 3.030319 -0.059871 0.299649 0.151596
87 6.957720 4.934898 4.904379 -0.211398 -0.325511 -0.478110
88 6.942636 5.014347 6.907963 -0.286818 0.071739 -0.460190
89 7.045858 5.106478 8.840740 0.229292 0.532389 -0.796293
90 7.006180 6.961157 1.031336 0.030900 -0.194219 0.156681
91 6.893635 7.026665 2.992838 -0.531822 0.133321 -0.035812
92 7.002285 7.006489 5.082464 0.011426 0.032443 0.412321
93 7.004488 7.016870 6.977041 0.022443 0.084351 -0.114795
94 7.024321 7.088688 9.099831 0.121607 0.443437 0.499159
95 7.067238 9.014381 0.881439 0.336185 0.071898 -0.592805
96 6.975967 8.953117 3.052782 -0.120162 -0.234413 0.263912
97 6.936829 8.964298 4.953215 -0.315859 -0.178509 -0.233930
98 6.971016 9.027340 7.062988 -0.144922 0.136704 0.314943
99 7.090855 8.953617 9.069183 0.454274 -0.231918 0.345908
100 8.916664 1.031345 1.012882 -0.416673 0.156727 0.064409
101 8.920696 1.074356 2.981238 -0.396512 0.371781 -0.093810
102 8.999428 0.986419 4.983147 -0.002856 -0.067905 -0.084263
103 8.906586 1.072073 6.942568 -0.467069 0.360363 -0.287160
104 8.982079 1.110937 9.051140 -0.089610 0.554686 0.255698
105 8.869228 2.944612 1.004185 -0.653865 -0.276944 0.020927
106 9.000759 3.109577 3.060952 0.003804 0.547888 0.304762
107 8.970848 3.023109 5.012730 -0.145757 0.115549 0.063648
108 9.008648 3.025535 7.044844 0.043248 0.127675 0.224215
109 9.122452 3.037293 9.123287 0.612260 0.186466 0.616433
110 8.931656 4.975229 0.966818 -0.341729 -0.123852 -0.165910
111 9.035984 5.061987 2.978193 0.179922 0.309935 -0.109033
112 8.899632 4.965052 5.022263 -0.501851 -0.174745 0.111317
113 8.943115 4.936947 7.037741 -0.284429 -0.315267 0.188704
114 9.055119 4.880995 9.025856 0.275587 -0.595021 0.129279
115 8.993011 6.918367 0.957360 -0.034942 -0.408163 -0.213199
116 8.995899 6.950087 2.953199 -0.020501 -0.249563 -0.234004
117 9.082863 6.985609 4.991386 0.414322 -0.071954 -0.043065
118 8.986225 7.032318 6.960413 -0.068878 0.161590 -0.197933
119 9.004261 7.007154 9.040886 0.021300 0.035774 0.204424
120 8.974442 9.051178 1.007177 -0.127795 0.255891 0.035886
121 9.134865 8.921509 2.969990 0.674318 -0.392453 -0.150053
122 9.076183 9.060196 4.971058 0.380915 0.300981 -0.144714
123 8.995079 8.989223 7.103821 -0.024603 -0.053877 0.519108
124 9.085152 8.897816 9.032162 0.425761 -0.510922 0.160804
ITEM: TIMESTEP
4
ITEM: NUMBER OF ATOMS
125
ITEM: BOX BOUNDS pp pp pp
0 10.000000
0 10.000000
0 10.000000
ITEM: ATOMS id x y z vx vy vz 