ITEM: TIMESTEP
0
ITEM: NUMBER OF ATOMS
2
ITEM: BOX BOUNDS pp pp pp
0 10.000000
0 10.000000
0 10.000000
ITEM: ATOMS id x y z vx vy vz 
0 5.203422 5.000000 5.000000 0.406843 -1.418643 -0.982932
1 9.796578 0.000000 0.000000 -0.406843 1.418643 0.982932
ITEM: TIMESTEP
1
ITEM: NUMBER OF ATOMS
2
ITEM: BOX BOUNDS pp pp pp
0 10.000000
0 10.000000
0 10.000000
ITEM: ATOMS id x y z vx vy vz 
0 5.406843 5.000000 5.000000 0.406843 -1.418643 -0.982932
1 9.593157 0.000000 0.000000 -0.406843 1.418643 0.982932
ITEM: TIMESTEP
2
ITEM: NUMBER OF ATOMS
2
ITEM: BOX BOUNDS pp pp pp
0 10.000000
0 10.000000
0 10.000000
ITEM: ATOMS id x y z vx vy vz 
0 5.610265 5.000000 5.000000 0.406843 -1.418643 -0.982932
1 9.389735 0.000000 0.000000 -0.406843 1.418643 0.982932
ITEM: TIMESTEP
3
ITEM: NUMBER OF ATOMS
2
ITEM: BOX BOUNDS pp pp pp
0 10.000000
0 10.000000
0 10.000000
ITEM: ATOMS id x y z vx vy vz 
0 5.813686 5.000000 5.000000 0.406843 -1.418643 -0.982932
1 9.186314 0.000000 0.000000 -0.406843 1.418643 0.982932
ITEM: TIMESTEP
4
ITEM: NUMBER OF ATOMS
2
ITEM: BOX BOUNDS pp pp pp
0 10.000000
0 10.000000
0 10.000000
ITEM: ATOMS id x y z vx vy vz 
0 6.017108 5.000000 5.000000 0.406843 -1.418643 -0.982932
1 8.982892 0.000000 0.000000 -0.406843 1.418643 0.982932
ITEM: TIMESTEP
5
ITEM: NUMBER OF ATOMS
2
ITEM: BOX BOUNDS pp pp pp
0 10.000000
0 10.000000
0 10.000000
ITEM: ATOMS id x y z vx vy vz 
0 6.220530 5.000000 5.000000 0.406843 -1.418643 -0.982932
1 8.779470 0.000000 0.000000 -0.406843 1.418643 0.982932
ITEM: TIMESTEP
6
ITEM: NUMBER OF ATOMS
2
ITEM: BOX BOUNDS pp pp pp
0 10.000000
0 10.000000
0 10.000000
ITEM: ATOMS id x y z vx vy vz 
0 6.423951 5.000000 5.000000 0.406843 -1.418643 -0.982932
1 8.576049 0.000000 0.000000 -0.406843 1.418643 0.982932
ITEM: TIMESTEP
7
ITEM: NUMBER OF ATOMS
2
ITEM: BOX BOUNDS pp pp pp
0 10.000000
0 10.000000
0 10.000000
ITEM: ATOMS id x y z vx vy vz 
0 6.627373 5.000000 5.000000 0.406843 -1.418643 -0.982932
1 8.372627 0.000000 0.000000 -0.406843 1.418643 0.982932
ITEM: TIMESTEP
8
ITEM: NUMBER OF ATOMS
2
ITEM: BOX BOUNDS pp pp pp
0 10.000000
0 10.000000
0 10.000000
ITEM: ATOMS id x y z vx vy vz 
0 6.830794 5.000000 5.000000 0.406843 -1.418643 -0.982932
1 8.169206 0.000000 0.000000 -0.406843 1.418643 0.982932
ITEM: TIMESTEP
9
ITEM: NUMBER OF ATOMS
2
ITEM: BOX BOUNDS pp pp pp
0 10.000000
0 10.000000
0 10.000000
ITEM: ATOMS id x y z vx vy vz 
0 7.034216 5.000000 5.000000 0.406843 -1.418643 -0.982932
1 7.965784 0.000000 0.000000 -0.406843 1.418643 0.982932
ITEM: TIMESTEP
10
ITEM: NUMBER OF ATOMS
2
ITEM: BOX BOUNDS pp pp pp
0 10.000000
0 10.000000
0 10.000000
ITEM: ATOMS id x y z vx vy vz 
0 7.237638 5.000000 5.000000 0.406843 -1.418643 -0.982932
1 7.762362 0.000000 0.000000 -0.406843 1.418643 0.982932
ITEM: TIMESTEP
11
ITEM: NUMBER OF ATOMS
2
ITEM: BOX BOUNDS pp pp pp
0 10.000000
0 10.000000
0 10.000000
ITEM: ATOMS id x y z vx vy vz 
0 7.441059 5.000000 5.000000 0.406843 -1.418643 -0.982932
1 7.558941 0.000000 0.000000 -0.406843 1.418643 0.982932
ITEM: TIMESTEP
12
ITEM: NUMBER OF ATOMS
2
ITEM: BOX BOUNDS pp pp pp
0 10.000000
0 10.000000
0 10.000000
ITEM: ATOMS id x y z vx vy vz 
0 7.644481 5.000000 5.000000 0.406843 -1.418643 -0.982932
1 7.355519 0.000000 0.000000 -0.406843 1.418643 0.982932
ITEM: TIMESTEP
13
ITEM: NUMBER OF ATOMS
2
ITEM: BOX BOUNDS pp pp pp
0 10.000000
0 10.000000
0 10.000000
ITEM: ATOMS id x y z vx vy vz 
0 7.847902 5.000000 5.000000 0.406843 -1.418643 -0.982932
1 7.152098 0.000000 0.000000 -0.406843 1.418643 0.982932
ITEM: TIMESTEP
14
ITEM: NUMBER OF ATOMS
2
ITEM: BOX BOUNDS pp pp pp
0 10.000000
0 10.000000
0 10.000000
ITEM: ATOMS id x y z vx vy vz 
0 8.051324 5.000000 5.000000 0.406843 -1.418643 -0.982932
1 6.948676 0.000000 0.000000 -0.406843 1.418643 0.982932
ITEM: TIMESTEP
15
ITEM: NUMBER OF ATOMS
2
ITEM: BOX BOUNDS pp pp pp
0 10.000000
0 10.000000
0 10.000000
ITEM: ATOMS id x y z vx vy vz 
0 8.254745 5.000000 5.000000 0.406843 -1.418643 -0.982932
1 6.745255 0.000000 0.000000 -0.406843 1.418643 0.982932
ITEM: TIMESTEP
16
ITEM: NUMBER OF ATOMS
2
ITEM: BOX BOUNDS pp pp pp
0 10.000000
0 10.000000
0 10.000000
ITEM: ATOMS id x y z vx vy vz 
0 8.458167 5.000000 5.000000 0.406843 -1.418643 -0.982932
1 6.541833 0.000000 0.000000 -0.406843 1.418643 0.982932
ITEM: TIMESTEP
17
ITEM: NUMBER OF ATOMS
2
ITEM: BOX BOUNDS pp pp pp
0 10.000000
0 10.000000
0 10.000000
ITEM: ATOMS id x y z vx vy vz 
0 8.661589 5.000000 5.000000 0.406843 -1.418643 -0.982932
1 6.338411 0.000000 0.000000 -0.406843 1.418643 0.982932
ITEM: TIMESTEP
18
ITEM: NUMBER OF ATOMS
2
ITEM: BOX BOUNDS pp pp pp
0 10.000000
0 10.000000
0 10.000000
ITEM: ATOMS id x y z vx vy vz 
0 8.865010 5.000000 5.000000 0.406843 -1.418643 -0.982932
1 6.134990 0.000000 0.000000 -0.406843 1.418643 0.982932
ITEM: TIMESTEP
19
ITEM: NUMBER OF ATOMS
2
ITEM: BOX BOUNDS pp pp pp
0 10.000000
0 10.000000
0 10.000000
ITEM: ATOMS id x y z vx vy vz 
0 9.068432 5.000000 5.000000 0.406843 -1.418643 -0.982932
1 5.931568 0.000000 0.000000 -0.406843 1.418643 0.982932
ITEM: TIMESTEP
20
ITEM: NUMBER OF ATOMS
2
ITEM: BOX BOUNDS pp pp pp
0 10.000000
0 10.000000
0 10.000000
ITEM: ATOMS id x y z vx vy vz 
0 9.271853 5.000000 5.000000 0.406843 -1.418643 -0.982932
1 5.728147 0.000000 0.000000 -0.406843 1.418643 0.982932
ITEM: TIMESTEP
21
ITEM: NUMBER OF ATOMS
2
ITEM: BOX BOUNDS pp pp pp
0 10.000000
0 10.000000
0 10.000000
ITEM: ATOMS id x y z vx vy vz 
0 9.475275 5.000000 5.000000 0.406843 -1.418643 -0.982932
1 5.524725 0.000000 0.000000 -0.406843 1.418643 0.982932
ITEM: TIMESTEP
22
ITEM: NUMBER OF ATOMS
2
ITEM: BOX BOUNDS pp pp pp
0 10.000000
0 10.000000
0 10.000000
ITEM: ATOMS id x y z vx vy vz 
0 9.678697 5.000000 5.000000 0.406843 -1.418643 -0.982932
1 5.321303 0.000000 0.000000 -0.406843 1.418643 0.982932
ITEM: TIMESTEP
23
ITEM: NUMBER OF ATOMS
2
ITEM: BOX BOUNDS pp pp pp
0 10.000000
0 10.000000
0 10.000000
ITEM: ATOMS id x y z vx vy vz 
0 9.882118 5.000000 5.000000 0.406843 -1.418643 -0.982932
1 5.117882 0.000000 0.000000 -0.406843 1.418643 0.982932
ITEM: TIMESTEP
24
ITEM: NUMBER OF ATOMS
2
ITEM: BOX BOUNDS pp pp pp
0 10.000000
0 10.000000
0 10.000000
ITEM: ATOMS id x y z vx vy vz 
0 0.085540 5.000000 5.000000 0.406843 -1.418643 -0.982932
1 4.914460 0.000000 0.000000 -0.406843 1.418643 0.982932
ITEM: TIMESTEP
25
ITEM: NUMBER OF ATOMS
2
ITEM: BOX BOUNDS pp pp pp
0 10.000000
0 10.000000
0 10.000000
ITEM: ATOMS id x y z vx vy vz 
0 0.288961 5.000000 5.000000 0.406843 -1.418643 -0.982932
1 4.711039 0.000000 0.000000 -0.406843 1.418643 0.982932
ITEM: TIMESTEP
26
ITEM: NUMBER OF ATOMS
2
ITEM: BOX BOUNDS pp pp pp
0 10.000000
0 10.000000
0 10.000000
ITEM: ATOMS id x y z vx vy vz 
0 0.492383 5.000000 5.000000 0.406843 -1.418643 -0.982932
1 4.507617 0.000000 0.000000 -0.406843 1.418643 0.982932
ITEM: TIMESTEP
27
ITEM: NUMBER OF ATOMS
2
ITEM: BOX BOUNDS pp pp pp
0 10.000000
0 10.000000
0 10.000000
ITEM: ATOMS id x y z vx vy vz 
0 0.695804 5.000000 5.000000 0.406843 -1.418643 -0.982932
1 4.304195 0.000000 0.000000 -0.406843 1.418643 0.982932
ITEM: TIMESTEP
28
ITEM: NUMBER OF ATOMS
2
ITEM: BOX BOUNDS pp pp pp
0 10.000000
0 10.000000
0 10.000000
ITEM: ATOMS id x y z vx vy vz 
0 0.899226 5.000000 5.000000 0.406843 -1.418643 -0.982932
1 4.100774 0.000000 0.000000 -0.406843 1.418643 0.982932
ITEM: TIMESTEP
29
ITEM: NUMBER OF ATOMS
2
ITEM: BOX BOUNDS pp pp pp
0 10.000000
0 10.000000
0 10.000000
ITEM: ATOMS id x y z vx vy vz 
0 1.102648 5.000000 5.000000 0.406843 -1.418643 -0.982932
1 3.897352 0.000000 0.000000 -0.406843 1.418643 0.982932
ITEM: TIMESTEP
30
ITEM: NUMBER OF ATOMS
2
ITEM: BOX BOUNDS pp pp pp
0 10.000000
0 10.000000
0 10.000000
ITEM: ATOMS id x y z vx vy vz 
0 1.306069 5.000000 5.000000 0.406843 -1.418643 -0.982932
1 3.693931 0.000000 0.000000 -0.406843 1.418643 0.982932
ITEM: TIMESTEP
31
ITEM: NUMBER OF ATOMS
2
ITEM: BOX BOUNDS pp pp pp
0 10.000000
0 10.000000
0 10.000000
ITEM: ATOMS id x y z vx vy vz 
0 1.509491 5.000000 5.000000 0.406843 -1.418643 -0.982932
1 3.490509 0.000000 0.000000 -0.406843 1.418643 0.982932
ITEM: TIMESTEP
32
ITEM: NUMBER OF ATOMS
2
ITEM: BOX BOUNDS pp pp pp
0 10.000000
0 10.000000
0 10.000000
ITEM: ATOMS id x y z vx vy vz 
0 1.712912 5.000000 5.000000 0.406843 -1.418643 -0.982932
1 3.287087 0.000000 0.000000 -0.406843 1.418643 0.982932
ITEM: TIMESTEP
33
ITEM: NUMBER OF ATOMS
2
ITEM: BOX BOUNDS pp pp pp
0 10.000000
0 10.000000
0 10.000000
ITEM: ATOMS id x y z vx vy vz 
0 1.916334 5.000000 5.000000 0.406843 -1.418643 -0.982932
1 3.083666 0.000000 0.000000 -0.406843 1.418643 0.982932
ITEM: TIMESTEP
34
ITEM: NUMBER OF ATOMS
2
ITEM: BOX BOUNDS pp pp pp
0 10.000000
0 10.000000
0 10.000000
ITEM: ATOMS id x y z vx vy vz 
0 2.119756 5.000000 5.000000 0.406843 -1.418643 -0.982932
1 2.880244 0.000000 0.000000 -0.406843 1.418643 0.982932
ITEM: TIMESTEP
35
ITEM: NUMBER OF ATOMS
2
ITEM: BOX BOUNDS pp pp pp
0 10.000000
0 10.000000
0 10.000000
ITEM: ATOMS id x y z vx vy vz 
0 2.323177 5.000000 5.000000 0.406843 -1.418643 -0.982932
1 2.676823 0.000000 0.000000 -0.406843 1.418643 0.982932
ITEM: TIMESTEP
36
ITEM: NUMBER OF ATOMS
2
ITEM: BOX BOUNDS pp pp pp
0 10.000000
0 10.000000
0 10.000000
ITEM: ATOMS id x y z vx vy vz 
0 2.526599 5.000000 5.000000 0.406843 -1.418643 -0.982932
1 2.473401 0.000000 0.000000 -0.406843 1.418643 0.982932
ITEM: TIMESTEP
37
ITEM: NUMBER OF ATOMS
2
ITEM: BOX BOUNDS pp pp pp
0 10.000000
0 10.000000
0 10.000000
ITEM: ATOMS id x y z vx vy vz 
0 2.730020 5.000000 5.000000 0.406843 -1.418643 -0.982932
1 2.269979 0.000000 0.000000 -0.406843 1.418643 0.982932
ITEM: TIMESTEP
38
ITEM: NUMBER OF ATOMS
2
ITEM: BOX BOUNDS pp pp pp
0 10.000000
0 10.000000
0 10.000000
ITEM: ATOMS id x y z vx vy vz 
0 2.933442 5.000000 5.000000 0.406843 -1.418643 -0.982932
1 2.066558 0.000000 0.000000 -0.406843 1.418643 0.982932
ITEM: TIMESTEP
39
ITEM: NUMBER OF ATOMS
2
ITEM: BOX BOUNDS pp pp pp
0 10.000000
0 10.000000
0 10.000000
ITEM: ATOMS id x y z vx vy vz 
0 3.136863 5.000000 5.000000 0.406843 -1.418643 -0.982932
1 1.863136 0.000000 0.000000 -0.406843 1.418643 0.982932
ITEM: TIMESTEP
40
ITEM: NUMBER OF ATOMS
2
ITEM: BOX BOUNDS pp pp pp
0 10.000000
0 10.000000
0 10.000000
ITEM: ATOMS id x y z vx vy vz 
0 3.340285 5.000000 5.000000 0.406843 -1.418643 -0.982932
1 1.659715 0.000000 0.000000 -0.406843 1.418643 0.982932
ITEM: TIMESTEP
41
ITEM: NUMBER OF ATOMS
2
ITEM: BOX BOUNDS pp pp pp
0 10.000000
0 10.000000
0 10.000000
ITEM: ATOMS id x y z vx vy vz 
0 3.543707 5.000000 5.000000 0.406843 -1.418643 -0.982932
1 1.456293 0.000000 0.000000 -0.406843 1.418643 0.982932
ITEM: TIMESTEP
42
ITEM: NUMBER OF ATOMS
2
ITEM: BOX BOUNDS pp pp pp
0 10.000000
0 10.000000
0 10.000000
ITEM: ATOMS id x y z vx vy vz 
0 3.747128 5.000000 5.000000 0.406843 -1.418643 -0.982932
1 1.252872 0.000000 0.000000 -0.406843 1.418643 0.982932
ITEM: TIMESTEP
43
ITEM: NUMBER OF ATOMS
2
ITEM: BOX BOUNDS pp pp pp
0 10.000000
0 10.000000
0 10.000000
ITEM: ATOMS id x y z vx vy vz 
0 3.950550 5.000000 5.000000 0.406843 -1.418643 -0.982932
1 1.049450 0.000000 0.000000 -0.406843 1.418643 0.982932
ITEM: TIMESTEP
44
ITEM: NUMBER OF ATOMS
2
ITEM: BOX BOUNDS pp pp pp
0 10.000000
0 10.000000
0 10.000000
ITEM: ATOMS id x y z vx vy vz 
0 4.153971 5.000000 5.000000 0.406843 -1.418643 -0.982932
1 0.846028 0.000000 0.000000 -0.406843 1.418643 0.982932
ITEM: TIMESTEP
45
ITEM: NUMBER OF ATOMS
2
ITEM: BOX BOUNDS pp pp pp
0 10.000000
0 10.000000
0 10.000000
ITEM: ATOMS id x y z vx vy vz 
0 4.357393 5.000000 5.000000 0.406843 -1.418643 -0.982932
1 0.642607 0.000000 0.000000 -0.406843 1.418643 0.982932
ITEM: TIMESTEP
46
ITEM: NUMBER OF ATOMS
2
ITEM: BOX BOUNDS pp pp pp
0 10.000000
0 10.000000
0 10.000000
ITEM: ATOMS id x y z vx vy vz 
0 4.560814 5.000000 5.000000 0.406843 -1.418643 -0.982932
1 0.439185 0.000000 0.000000 -0.406843 1.418643 0.982932
ITEM: TIMESTEP
47
ITEM: NUMBER OF ATOMS
2
ITEM: BOX BOUNDS pp pp pp
0 10.000000
0 10.000000
0 10.000000
ITEM: ATOMS id x y z vx vy vz 
0 4.764236 5.000000 5.000000 0.406843 -1.418643 -0.982932
1 0.235764 0.000000 0.000000 -0.406843 1.418643 0.982932
ITEM: TIMESTEP
48
ITEM: NUMBER OF ATOMS
2
ITEM: BOX BOUNDS pp pp pp
0 10.000000
0 10.000000
0 10.000000
ITEM: ATOMS id x y z vx vy vz 
0 4.967658 5.000000 5.000000 0.406843 -1.418643 -0.982932
1 0.032342 0.000000 0.000000 -0.406843 1.418643 0.982932
ITEM: TIMESTEP
49
ITEM: NUMBER OF ATOMS
2
ITEM: BOX BOUNDS pp pp pp
0 10.000000
0 10.000000
0 10.000000
ITEM: ATOMS id x y z vx vy vz 
0 5.171079 5.000000 5.000000 0.406843 -1.418643 -0.982932
1 9.828920 0.000000 0.000000 -0.406843 1.418643 0.982932
ITEM: TIMESTEP
50
ITEM: NUMBER OF ATOMS
2
ITEM: BOX BOUNDS pp pp pp
0 10.000000
0 10.000000
0 10.000000
ITEM: ATOMS id x y z vx vy vz 
0 5.374501 5.000000 5.000000 0.406843 -1.418643 -0.982932
1 9.625499 0.000000 0.000000 -0.406843 1.418643 0.982932
ITEM: TIMESTEP
51
ITEM: NUMBER OF ATOMS
2
ITEM: BOX BOUNDS pp pp pp
0 10.000000
0 10.000000
0 10.000000
ITEM: ATOMS id x y z vx vy vz 
0 5.577922 5.000000 5.000000 0.406843 -1.418643 -0.982932
1 9.422077 0.000000 0.000000 -0.406843 1.418643 0.982932
ITEM: TIMESTEP
52
ITEM: NUMBER OF ATOMS
2
ITEM: BOX BOUNDS pp pp pp
0 10.000000
0 10.000000
0 10.000000
ITEM: ATOMS id x y z vx vy vz 
0 5.781344 5.000000 5.000000 0.406843 -1.418643 -0.982932
1 9.218656 0.000000 0.000000 -0.406843 1.418643 0.982932
ITEM: TIMESTEP
53
ITEM: NUMBER OF ATOMS
2
ITEM: BOX BOUNDS pp pp pp
0 10.000000
0 10.000000
0 10.000000
ITEM: ATOMS id x y z vx vy vz 
0 5.984766 5.000000 5.000000 0.406843 -1.418643 -0.982932
1 9.015234 0.000000 0.000000 -0.406843 1.418643 0.982932
ITEM: TIMESTEP
54
ITEM: NUMBER OF ATOMS
2
ITEM: BOX BOUNDS pp pp pp
0 10.000000
0 10.000000
0 10.000000
ITEM: ATOMS id x y z vx vy vz 
0 6.188187 5.000000 5.000000 0.406843 -1.418643 -0.982932
1 8.811812 0.000000 0.000000 -0.406843 1.418643 0.982932
ITEM: TIMESTEP
55
ITEM: NUMBER OF ATOMS
2
ITEM: BOX BOUNDS pp pp pp
0 10.000000
0 10.000000
0 10.000000
ITEM: ATOMS id x y z vx vy vz 
0 6.391609 5.000000 5.000000 0.406843 -1.418643 -0.982932
1 8.608391 0.000000 0.000000 -0.406843 1.418643 0.982932
ITEM: TIMESTEP
56
ITEM: NUMBER OF ATOMS
2
ITEM: BOX BOUNDS pp pp pp
0 10.000000
0 10.000000
0 10.000000
ITEM: ATOMS id x y z vx vy vz 
0 6.595030 5.000000 5.000000 0.406843 -1.418643 -0.982932
1 8.404969 0.000000 0.000000 -0.406843 1.418643 0.982932
ITEM: TIMESTEP
57
ITEM: NUMBER OF ATOMS
2
ITEM: BOX BOUNDS pp pp pp
0 10.000000
0 10.000000
0 10.000000
ITEM: ATOMS id x y z vx vy vz 
0 6.798452 5.000000 5.000000 0.406843 -1.418643 -0.982932
1 8.201548 0.000000 0.000000 -0.406843 1.418643 0.982932
ITEM: TIMESTEP
58
ITEM: NUMBER OF ATOMS
2
ITEM: BOX BOUNDS pp pp pp
0 10.000000
0 10.000000
0 10.000000
ITEM: ATOMS id x y z vx vy vz 
0 7.001873 5.000000 5.000000 0.406843 -1.418643 -0.982932
1 7.998126 0.000000 0.000000 -0.406843 1.418643 0.982932
ITEM: TIMESTEP
59
ITEM: NUMBER OF ATOMS
2
ITEM: BOX BOUNDS pp pp pp
0 10.000000
0 10.000000
0 10.000000
ITEM: ATOMS id x y z vx vy vz 
0 7.205295 5.000000 5.000000 0.406843 -1.418643 -0.982932
1 7.794704 0.000000 0.000000 -0.406843 1.418643 0.982932
ITEM: TIMESTEP
60
ITEM: NUMBER OF ATOMS
2
ITEM: BOX BOUNDS pp pp pp
0 10.000000
0 10.000000
0 10.000000
ITEM: ATOMS id x y z vx vy vz 
0 7.408717 5.000000 5.000000 0.406843 -1.418643 -0.982932
1 7.591283 0.000000 0.000000 -0.406843 1.418643 0.982932
ITEM: TIMESTEP
61
ITEM: NUMBER OF ATOMS
2
ITEM: BOX BOUNDS pp pp pp
0 10.000000
0 10.000000
0 10.000000
ITEM: ATOMS id x y z vx vy vz 
0 7.612138 5.000000 5.000000 0.406843 -1.418643 -0.982932
1 7.387861 0.000000 0.000000 -0.406843 1.418643 0.982932
ITEM: TIMESTEP
62
ITEM: NUMBER OF ATOMS
2
ITEM: BOX BOUNDS pp pp pp
0 10.000000
0 10.000000
0 10.000000
ITEM: ATOMS id x y z vx vy vz 
0 7.815560 5.000000 5.000000 0.406843 -1.418643 -0.982932
1 7.184440 0.000000 0.000000 -0.406843 1.418643 0.982932
ITEM: TIMESTEP
63
ITEM: NUMBER OF ATOMS
2
ITEM: BOX BOUNDS pp pp pp
0 10.000000
0 10.000000
0 10.000000
ITEM: ATOMS id x y z vx vy vz 
0 8.018981 5.000000 5.000000 0.406843 -1.418643 -0.982932
1 6.981018 0.000000 0.000000 -0.406843 1.418643 0.982932
ITEM: TIMESTEP
64
ITEM: NUMBER OF ATOMS
2
ITEM: BOX BOUNDS pp pp pp
0 10.000000
0 10.000000
0 10.000000
ITEM: ATOMS id x y z vx vy vz 
0 8.222403 5.000000 5.000000 0.406843 -1.418643 -0.982932
1 6.777596 0.000000 0.000000 -0.406843 1.418643 0.982932
ITEM: TIMESTEP
65
ITEM: NUMBER OF ATOMS
2
ITEM: BOX BOUNDS pp pp pp
0 10.000000
0 10.000000
0 10.000000
ITEM: ATOMS id x y z vx vy vz 
0 8.425824 5.000000 5.000000 0.406843 -1.418643 -0.982932
1 6.574175 0.000000 0.000000 -0.406843 1.418643 0.982932
ITEM: TIMESTEP
66
ITEM: NUMBER OF ATOMS
2
ITEM: BOX BOUNDS pp pp pp
0 10.000000
0 10.000000
0 10.000000
ITEM: ATOMS id x y z vx vy vz 
0 8.629246 5.000000 5.000000 0.406843 -1.418643 -0.982932
1 6.370753 0.000000 0.000000 -0.406843 1.418643 0.982932
ITEM: TIMESTEP
67
ITEM: NUMBER OF ATOMS
2
ITEM: BOX BOUNDS pp pp pp
0 10.000000
0 10.000000
0 10.000000
ITEM: ATOMS id x y z vx vy vz 
0 8.832667 5.000000 5.000000 0.406843 -1.418643 -0.982932
1 6.167332 0.000000 0.000000 -0.406843 1.418643 0.982932
ITEM: TIMESTEP
68
ITEM: NUMBER OF ATOMS
2
ITEM: BOX BOUNDS pp pp pp
0 10.000000
0 10.000000
0 10.000000
ITEM: ATOMS id x y z vx vy vz 
0 9.036089 5.000000 5.000000 0.406843 -1.418643 -0.982932
1 5.963910 0.000000 0.000000 -0.406843 1.418643 0.982932
ITEM: TIMESTEP
69
ITEM: NUMBER OF ATOMS
2
ITEM: BOX BOUNDS pp pp pp
0 10.000000
0 10.000000
0 10.000000
ITEM: ATOMS id x y z vx vy vz 
0 9.239511 5.000000 5.000000 0.406843 -1.418643 -0.982932
1 5.760489 0.000000 0.000000 -0.406843 1.418643 0.982932
ITEM: TIMESTEP
70
ITEM: NUMBER OF ATOMS
2
ITEM: BOX BOUNDS pp pp pp
0 10.000000
0 10.000000
0 10.000000
ITEM: ATOMS id x y z vx vy vz 
0 9.442932 5.000000 5.000000 0.406843 -1.418643 -0.982932
1 5.557067 0.000000 0.000000 -0.406843 1.418643 0.982932
ITEM: TIMESTEP
71
ITEM: NUMBER OF ATOMS
2
ITEM: BOX BOUNDS pp pp pp
0 10.000000
0 10.000000
0 10.000000
ITEM: ATOMS id x y z vx vy vz 
0 9.646354 5.000000 5.000000 0.406843 -1.418643 -0.982932
1 5.353645 0.000000 0.000000 -0.406843 1.418643 0.982932
ITEM: TIMESTEP
72
ITEM: NUMBER OF ATOMS
2
ITEM: BOX BOUNDS pp pp pp
0 10.000000
0 10.000000
0 10.000000
ITEM: ATOMS id x y z vx vy vz 
0 9.849775 5.000000 5.000000 0.406843 -1.418643 -0.982932
1 5.150224 0.000000 0.000000 -0.406843 1.418643 0.982932
ITEM: TIMESTEP
73
ITEM: NUMBER OF ATOMS
2
ITEM: BOX BOUNDS pp pp pp
0 10.000000
0 10.000000
0 10.000000
ITEM: ATOMS id x y z vx vy vz 
0 0.053197 5.000000 5.000000 0.406843 -1.418643 -0.982932
1 4.946802 0.000000 0.000000 -0.406843 1.418643 0.982932
ITEM: TIMESTEP
74
ITEM: NUMBER OF ATOMS
2
ITEM: BOX BOUNDS pp pp pp
0 10.000000
0 10.000000
0 10.000000
ITEM: ATOMS id x y z vx vy vz 
0 0.256618 5.000000 5.000000 0.406843 -1.418643 -0.982932
1 4.743381 0.000000 0.000000 -0.406843 1.418643 0.982932
ITEM: TIMESTEP
75
ITEM: NUMBER OF ATOMS
2
ITEM: BOX BOUNDS pp pp pp
0 10.000000
0 10.000000
0 10.000000
ITEM: ATOMS id x y z vx vy vz 
0 0.460040 5.000000 5.000000 0.406843 -1.418643 -0.982932
1 4.539959 0.000000 0.000000 -0.406843 1.418643 0.982932
ITEM: TIMESTEP
76
ITEM: NUMBER OF ATOMS
2
ITEM: BOX BOUNDS pp pp pp
0 10.000000
0 10.000000
0 10.000000
ITEM: ATOMS id x y z vx vy vz 
0 0.663462 5.000000 5.000000 0.406843 -1.418643 -0.982932
1 4.336537 0.000000 0.000000 -0.406843 1.418643 0.982932
ITEM: TIMESTEP
77
ITEM: NUMBER OF ATOMS
2
ITEM: BOX BOUNDS pp pp pp
0 10.000000
0 10.000000
0 10.000000
ITEM: ATOMS id x y z vx vy vz 
0 0.866883 5.000000 5.000000 0.406843 -1.418643 -0.982932
1 4.133116 0.000000 0.000000 -0.406843 1.418643 0.982932
ITEM: TIMESTEP
78
ITEM: NUMBER OF ATOMS
2
ITEM: BOX BOUNDS pp pp pp
0 10.000000
0 10.000000
0 10.000000
ITEM: ATOMS id x y z vx vy vz 
0 1.070305 5.000000 5.000000 0.406843 -1.418643 -0.982932
1 3.929694 0.000000 0.000000 -0.406843 1.418643 0.982932
ITEM: TIMESTEP
79
ITEM: NUMBER OF ATOMS
2
ITEM: BOX BOUNDS pp pp pp
0 10.000000
0 10.000000
0 10.000000
ITEM: ATOMS id x y z vx vy vz 
0 1.273726 5.000000 5.000000 0.406843 -1.418643 -0.982932
1 3.726273 0.000000 0.000000 -0.406843 1.418643 0.982932
ITEM: TIMESTEP
80
ITEM: NUMBER OF ATOMS
2
ITEM: BOX BOUNDS pp pp pp
0 10.000000
0 10.000000
0 10.000000
ITEM: ATOMS id x y z vx vy vz 
0 1.477148 5.000000 5.000000 0.406843 -1.418643 -0.982932
1 3.522851 0.000000 0.000000 -0.406843 1.418643 0.982932
ITEM: TIMESTEP
81
ITEM: NUMBER OF ATOMS
2
ITEM: BOX BOUNDS pp pp pp
0 10.000000
0 10.000000
0 10.000000
ITEM: ATOMS id x y z vx vy vz 
0 1.680569 5.000000 5.000000 0.406843 -1.418643 -0.982932
1 3.319429 0.000000 0.000000 -0.406843 1.418643 0.982932
ITEM: TIMESTEP
82
ITEM: NUMBER OF ATOMS
2
ITEM: BOX BOUNDS pp pp pp
0 10.000000
0 10.000000
0 10.000000
ITEM: ATOMS id x y z vx vy vz 
0 1.883991 5.000000 5.000000 0.406843 -1.418643 -0.982932
1 3.116008 0.000000 0.000000 -0.406843 1.418643 0.982932
ITEM: TIMESTEP
83
ITEM: NUMBER OF ATOMS
2
ITEM: BOX BOUNDS pp pp pp
0 10.000000
0 10.000000
0 10.000000
ITEM: ATOMS id x y z vx vy vz 
0 2.087413 5.000000 5.000000 0.406843 -1.418643 -0.982932
1 2.912586 0.000000 0.000000 -0.406843 1.418643 0.982932
ITEM: TIMESTEP
84
ITEM: NUMBER OF ATOMS
2
ITEM: BOX BOUNDS pp pp pp
0 10.000000
0 10.000000
0 10.000000
ITEM: ATOMS id x y z vx vy vz 
0 2.290834 5.000000 5.000000 0.406843 -1.418643 -0.982932
1 2.709165 0.000000 0.000000 -0.406843 1.418643 0.982932
ITEM: TIMESTEP
85
ITEM: NUMBER OF ATOMS
2
ITEM: BOX BOUNDS pp pp pp
0 10.000000
0 10.000000
0 10.000000
ITEM: ATOMS id x y z vx vy vz 
0 2.494256 5.000000 5.000000 0.406843 -1.418643 -0.982932
1 2.505743 0.000000 0.000000 -0.406843 1.418643 0.982932
ITEM: TIMESTEP
86
ITEM: NUMBER OF ATOMS
2
ITEM: BOX BOUNDS pp pp pp
0 10.000000
0 10.000000
0 10.000000
ITEM: ATOMS id x y z vx vy vz 
0 2.697677 5.000000 5.000000 0.406843 -1.418643 -0.982932
1 2.302321 0.000000 0.000000 -0.406843 1.418643 0.982932
ITEM: TIMESTEP
87
ITEM: NUMBER OF ATOMS
2
ITEM: BOX BOUNDS pp pp pp
0 10.000000
0 10.000000
0 10.000000
ITEM: ATOMS id x y z vx vy vz 
0 2.901099 5.000000 5.000000 0.406843 -1.418643 -0.982932
1 2.098900 0.000000 0.000000 -0.406843 1.418643 0.982932
ITEM: TIMESTEP
88
ITEM: NUMBER OF ATOMS
2
ITEM: BOX BOUNDS pp pp pp
0 10.000000
0 10.000000
0 10.000000
ITEM: ATOMS id x y z vx vy vz 
0 3.104521 5.000000 5.000000 0.406843 -1.418643 -0.982932
1 1.895478 0.000000 0.000000 -0.406843 1.418643 0.982932
ITEM: TIMESTEP
89
ITEM: NUMBER OF ATOMS
2
ITEM: BOX BOUNDS pp pp pp
0 10.000000
0 10.000000
0 10.000000
ITEM: ATOMS id x y z vx vy vz 
0 3.307942 5.000000 5.000000 0.406843 -1.418643 -0.982932
1 1.692057 0.000000 0.000000 -0.406843 1.418643 0.982932
ITEM: TIMESTEP
90
ITEM: NUMBER OF ATOMS
2
ITEM: BOX BOUNDS pp pp pp
0 10.000000
0 10.000000
0 10.000000
ITEM: ATOMS id x y z vx vy vz 
0 3.511364 5.000000 5.000000 0.406843 -1.418643 -0.982932
1 1.488635 0.000000 0.000000 -0.406843 1.418643 0.982932
ITEM: TIMESTEP
91
ITEM: NUMBER OF ATOMS
2
ITEM: BOX BOUNDS pp pp pp
0 10.000000
0 10.000000
0 10.000000
ITEM: ATOMS id x y z vx vy vz 
0 3.714785 5.000000 5.000000 0.406843 -1.418643 -0.982932
1 1.285213 0.000000 0.000000 -0.406843 1.418643 0.982932
ITEM: TIMESTEP
92
ITEM: NUMBER OF ATOMS
2
ITEM: BOX BOUNDS pp pp pp
0 10.000000
0 10.000000
0 10.000000
ITEM: ATOMS id x y z vx vy vz 
0 3.918207 5.000000 5.000000 0.406843 -1.418643 -0.982932
1 1.081792 0.000000 0.000000 -0.406843 1.418643 0.982932
ITEM: TIMESTEP
93
ITEM: NUMBER OF ATOMS
2
ITEM: BOX BOUNDS pp pp pp
0 10.000000
0 10.000000
0 10.000000
ITEM: ATOMS id x y z vx vy vz 
0 4.121628 5.000000 5.000000 0.406843 -1.418643 -0.982932
1 0.878370 0.000000 0.000000 -0.406843 1.418643 0.982932
ITEM: TIMESTEP
94
ITEM: NUMBER OF ATOMS
2
ITEM: BOX BOUNDS pp pp pp
0 10.000000
0 10.000000
0 10.000000
ITEM: ATOMS id x y z vx vy vz 
0 4.325050 5.000000 5.000000 0.406843 -1.418643 -0.982932
1 0.674949 0.000000 0.000000 -0.406843 1.418643 0.982932
ITEM: TIMESTEP
95
ITEM: NUMBER OF ATOMS
2
ITEM: BOX BOUNDS pp pp pp
0 10.000000
0 10.000000
0 10.000000
ITEM: ATOMS id x y z vx vy vz 
0 4.528471 5.000000 5.000000 0.406843 -1.418643 -0.982932
1 0.471527 0.000000 0.000000 -0.406843 1.418643 0.982932
ITEM: TIMESTEP
96
ITEM: NUMBER OF ATOMS
2
ITEM: BOX BOUNDS pp pp pp
0 10.000000
0 10.000000
0 10.000000
ITEM: ATOMS id x y z vx vy vz 
0 4.731893 5.000000 5.000000 0.406843 -1.418643 -0.982932
1 0.268106 0.000000 0.000000 -0.406843 1.418643 0.982932
ITEM: TIMESTEP
97
ITEM: NUMBER OF ATOMS
2
ITEM: BOX BOUNDS pp pp pp
0 10.000000
0 10.000000
0 10.000000
ITEM: ATOMS id x y z vx vy vz 
0 4.935315 5.000000 5.000000 0.406843 -1.418643 -0.982932
1 0.064684 0.000000 0.000000 -0.406843 1.418643 0.982932
ITEM: TIMESTEP
98
ITEM: NUMBER OF ATOMS
2
ITEM: BOX BOUNDS pp pp pp
0 10.000000
0 10.000000
0 10.000000
ITEM: ATOMS id x y z vx vy vz 
0 5.138736 5.000000 5.000000 0.406843 -1.418643 -0.982932
1 9.861262 0.000000 0.000000 -0.406843 1.418643 0.982932
ITEM: TIMESTEP
99
ITEM: NUMBER OF ATOMS
2
ITEM: BOX BOUNDS pp pp pp
0 10.000000
0 10.000000
0 10.000000
ITEM: ATOMS id x y z vx vy vz 
0 5.342158 5.000000 5.000000 0.406843 -1.418643 -0.982932
1 9.657841 0.000000 0.000000 -0.406843 1.418643 0.982932
ITEM: TIMESTEP
100
ITEM: NUMBER OF ATOMS
2
ITEM: BOX BOUNDS pp pp pp
0 10.000000
0 10.000000
0 10.000000
ITEM: ATOMS id x y z vx vy vz 
0 5.342158 5.000000 5.000000 0.406843 -1.418643 -0.982932
1 9.657841 0.000000 0.000000 -0.406843 1.418643 0.982932
ITEM: TIMESTEP
101
ITEM: NUMBER OF ATOMS
2
ITEM: BOX BOUNDS pp pp pp
0 10.000000
0 10.000000
0 10.000000
ITEM: ATOMS id x y z vx vy vz 
0 5.138736 5.000000 5.000000 0.406843 -1.418643 -0.982932
1 9.861262 0.000000 0.000000 -0.406843 1.418643 0.982932
ITEM: TIMESTEP
102
ITEM: NUMBER OF ATOMS
2
ITEM: BOX BOUNDS pp pp pp
0 10.000000
0 10.000000
0 10.000000
ITEM: ATOMS id x y z vx vy vz 
0 4.935315 5.000000 5.000000 0.406843 -1.418643 -0.982932
1 0.064684 0.000000 0.000000 -0.406843 1.418643 0.982932
ITEM: TIMESTEP
103
ITEM: NUMBER OF ATOMS
2
ITEM: BOX BOUNDS pp pp pp
0 10.000000
0 10.000000
0 10.000000
ITEM: ATOMS id x y z vx vy vz 
0 4.731893 5.000000 5.000000 0.406843 -1.418643 -0.982932
1 0.268106 0.000000 0.000000 -0.406843 1.418643 0.982932
ITEM: TIMESTEP
104
ITEM: NUMBER OF ATOMS
2
ITEM: BOX BOUNDS pp pp pp
0 10.000000
0 10.000000
0 10.000000
ITEM: ATOMS id x y z vx vy vz 
0 4.528471 5.000000 5.000000 0.406843 -1.418643 -0.982932
1 0.471527 0.000000 0.000000 -0.406843 1.418643 0.982932
ITEM: TIMESTEP
105
ITEM: NUMBER OF ATOMS
2
ITEM: BOX BOUNDS pp pp pp
0 10.000000
0 10.000000
0 10.000000
ITEM: ATOMS id x y z vx vy vz 
0 4.325050 5.000000 5.000000 0.406843 -1.418643 -0.982932
1 0.674949 0.000000 0.000000 -0.406843 1.418643 0.982932
ITEM: TIMESTEP
106
ITEM: NUMBER OF ATOMS
2
ITEM: BOX BOUNDS pp pp pp
0 10.000000
0 10.000000
0 10.000000
ITEM: ATOMS id x y z vx vy vz 
0 4.121628 5.000000 5.000000 0.406843 -1.418643 -0.982932
1 0.878370 0.000000 0.000000 -0.406843 1.418643 0.982932
ITEM: TIMESTEP
107
ITEM: NUMBER OF ATOMS
2
ITEM: BOX BOUNDS pp pp pp
0 10.000000
0 10.000000
0 10.000000
ITEM: ATOMS id x y z vx vy vz 
0 3.918207 5.000000 5.000000 0.406843 -1.418643 -0.982932
1 1.081792 0.000000 0.000000 -0.406843 1.418643 0.982932
ITEM: TIMESTEP
108
ITEM: NUMBER OF ATOMS
2
ITEM: BOX BOUNDS pp pp pp
0 10.000000
0 10.000000
0 10.000000
ITEM: ATOMS id x y z vx vy vz 
0 3.714785 5.000000 5.000000 0.406843 -1.418643 -0.982932
1 1.285213 0.000000 0.000000 -0.406843 1.418643 0.982932
ITEM: TIMESTEP
109
ITEM: NUMBER OF ATOMS
2
ITEM: BOX BOUNDS pp pp pp
0 10.000000
0 10.000000
0 10.000000
ITEM: ATOMS id x y z vx vy vz 
0 3.511364 5.000000 5.000000 0.406843 -1.418643 -0.982932
1 1.488635 0.000000 0.000000 -0.406843 1.418643 0.982932
ITEM: TIMESTEP
110
ITEM: NUMBER OF ATOMS
2
ITEM: BOX BOUNDS pp pp pp
0 10.000000
0 10.000000
0 10.000000
ITEM: ATOMS id x y z vx vy vz 
0 3.307942 5.000000 5.000000 0.406843 -1.418643 -0.982932
1 1.692057 0.000000 0.000000 -0.406843 1.418643 0.982932
ITEM: TIMESTEP
111
ITEM: NUMBER OF ATOMS
2
ITEM: BOX BOUNDS pp pp pp
0 10.000000
0 10.000000
0 10.000000
ITEM: ATOMS id x y z vx vy vz 
0 3.104521 5.000000 5.000000 0.406843 -1.418643 -0.982932
1 1.895478 0.000000 0.000000 -0.406843 1.418643 0.982932
ITEM: TIMESTEP
112
ITEM: NUMBER OF ATOMS
2
ITEM: BOX BOUNDS pp pp pp
0 10.000000
0 10.000000
0 10.000000
ITEM: ATOMS id x y z vx vy vz 
0 2.901099 5.000000 5.000000 0.406843 -1.418643 -0.982932
1 2.098900 0.000000 0.000000 -0.406843 1.418643 0.982932
ITEM: TIMESTEP
113
ITEM: NUMBER OF ATOMS
2
ITEM: BOX BOUNDS pp pp pp
0 10.000000
0 10.000000
0 10.000000
ITEM: ATOMS id x y z vx vy vz 
0 2.697677 5.000000 5.000000 0.406843 -1.418643 -0.982932
1 2.302321 0.000000 0.000000 -0.406843 1.418643 0.982932
ITEM: TIMESTEP
114
ITEM: NUMBER OF ATOMS
2
ITEM: BOX BOUNDS pp pp pp
0 10.000000
0 10.000000
0 10.000000
ITEM: ATOMS id x y z vx vy vz 
0 2.494256 5.000000 5.000000 0.406843 -1.418643 -0.982932
1 2.505743 0.000000 0.000000 -0.406843 1.418643 0.982932
ITEM: TIMESTEP
115
ITEM: NUMBER OF ATOMS
2
ITEM: BOX BOUNDS pp pp pp
0 10.000000
0 10.000000
0 10.000000
ITEM: ATOMS id x y z vx vy vz 
0 2.290834 5.000000 5.000000 0.406843 -1.418643 -0.982932
1 2.709165 0.000000 0.000000 -0.406843 1.418643 0.982932
ITEM: TIMESTEP
116
ITEM: NUMBER OF ATOMS
2
ITEM: BOX BOUNDS pp pp pp
0 10.000000
0 10.000000
0 10.000000
ITEM: ATOMS id x y z vx vy vz 
0 2.087413 5.000000 5.000000 0.406843 -1.418643 -0.982932
1 2.912586 0.000000 0.000000 -0.406843 1.418643 0.982932
ITEM: TIMESTEP
117
ITEM: NUMBER OF ATOMS
2
ITEM: BOX BOUNDS pp pp pp
0 10.000000
0 10.000000
0 10.000000
ITEM: ATOMS id x y z vx vy vz 
0 1.883991 5.000000 5.000000 0.406843 -1.418643 -0.982932
1 3.116008 0.000000 0.000000 -0.406843 1.418643 0.982932
ITEM: TIMESTEP
118
ITEM: NUMBER OF ATOMS
2
ITEM: BOX BOUNDS pp pp pp
0 10.000000
0 10.000000
0 10.000000
ITEM: ATOMS id x y z vx vy vz 
0 1.680569 5.000000 5.000000 0.406843 -1.418643 -0.982932
1 3.319429 0.000000 0.000000 -0.406843 1.418643 0.982932
ITEM: TIMESTEP
119
ITEM: NUMBER OF ATOMS
2
ITEM: BOX BOUNDS pp pp pp
0 10.000000
0 10.000000
0 10.000000
ITEM: ATOMS id x y z vx vy vz 
0 1.477148 5.000000 5.000000 0.406843 -1.418643 -0.982932