ITEM: TIMESTEP
0
ITEM: NUMBER OF ATOMS
8
ITEM: BOX BOUNDS pp pp pp
0 10.000000
0 10.000000
0 10.000000
ITEM: ATOMS id x y z vx vy vz 
0 2.508921 2.482194 2.488195 0.892099 -1.780558 -1.180482
1 2.500784 2.510567 7.507854 0.078413 1.056727 0.785382
2 2.492598 7.508280 2.494879 -0.740220 0.828024 -0.512089
3 2.506106 7.503460 7.493660 0.610607 0.346044 -0.634013
4 7.505247 2.504123 2.499908 0.524688 0.412305 -0.009181
5 7.506546 2.498890 7.503361 0.654603 -0.111030 0.336064
6 7.482245 7.492098 2.503527 -1.775456 -0.790188 0.352747
7 7.497553 7.500387 7.508616 -0.244734 0.038676 0.861572
ITEM: TIMESTEP
1
ITEM: NUMBER OF ATOMS
8
ITEM: BOX BOUNDS pp pp pp
0 10.000000
0 10.000000
0 10.000000
ITEM: ATOMS id x y z vx vy vz 
0 2.517842 2.464389 2.476390 0.892099 -1.780558 -1.180482
1 2.501568 2.521135 7.515708 0.078413 1.056727 0.785382
2 2.485196 7.516560 2.489758 -0.740220 0.828024 -0.512089
3 2.512212 7.506921 7.487320 0.610607 0.346044 -0.634013
4 7.510494 2.508246 2.499816 0.524688 0.412305 -0.009181
5 7.513092 2.497779 7.506721 0.654603 -0.111030 0.336064
6 7.464491 7.484196 2.507055 -1.775456 -0.790188 0.352747
7 7.495105 7.500774 7.517231 -0.244734 0.038676 0.861572
ITEM: TIMESTEP
2
ITEM: NUMBER OF ATOMS
8
ITEM: BOX BOUNDS pp pp pp
0 10.000000
0 10.000000
0 10.000000
ITEM: ATOMS id x y z vx vy vz 
0 2.526763 2.446583 2.464586 0.892099 -1.780558 -1.180482
1 2.502352 2.531702 7.523561 0.078413 1.056727 0.785382
2 2.477793 7.524841 2.484637 -0.740220 0.828024 -0.512089
3 2.518318 7.510381 7.480980 0.610607 0.346044 -0.634013
4 7.515741 2.512369 2.499725 0.524688 0.412305 -0.009181
5 7.519638 2.496669 7.510082 0.654603 -0.111030 0.336064
6 7.446736 7.476294 2.510582 -1.775456 -0.790188 0.352747
7 7.492658 7.501160 7.525847 -0.244734 0.038676 0.861572
ITEM: TIMESTEP
3
ITEM: NUMBER OF ATOMS
8
ITEM: BOX BOUNDS pp pp pp
0 10.000000
0 10.000000
0 10.000000
ITEM: ATOMS id x y z vx vy vz 
0 2.535684 2.428778 2.452781 0.892099 -1.780558 -1.180482
1 2.503137 2.542269 7.531415 0.078413 1.056727 0.785382
2 2.470391 7.533121 2.479516 -0.740220 0.828024 -0.512089
3 2.524424 7.513842 7.474639 0.610607 0.346044 -0.634013
4 7.520988 2.516492 2.499633 0.524688 0.412305 -0.009181
5 7.526184 2.495559 7.513443 0.654603 -0.111030 0.336064
6 7.428982 7.468392 2.514110 -1.775456 -0.790188 0.352747
7 7.490211 7.501547 7.534463 -0.244734 0.038676 0.861572
ITEM: TIMESTEP
4
ITEM: NUMBER OF ATOMS
8
ITEM: BOX BOUNDS pp pp pp
0 10.000000
0 10.000000
0 10.000000
ITEM: ATOMS id x y z vx vy vz 
0 2.544605 2.410972 2.440976 0.892099 -1.780558 -1.180482
1 2.503921 2.552836 7.539269 0.078413 1.056727 0.785382
2 2.462989 7.541401 2.474396 -0.740220 0.828024 -0.512089
3 2.530530 7.517302 7.468299 0.610607 0.346044 -0.634013
4 7.526234 2.520615 2.499541 0.524688 0.412305 -0.009181
5 7.532730 2.494449 7.516803 0.654603 -0.111030 0.336064
6 7.411227 7.460491 2.517637 -1.775456 -0.790188 0.352747
7 7.487763 7.501934 7.543079 -0.244734 0.038676 0.861572
ITEM: TIMESTEP
5
ITEM: NUMBER OF ATOMS
8
ITEM: BOX BOUNDS pp pp pp
0 10.000000
0 10.000000
0 10.000000
ITEM: ATOMS id x y z vx vy vz 
0 2.553526 2.393167 2.429171 0.892099 -1.780558 -1.180482
1 2.504705 2.563404 7.547123 0.078413 1.056727 0.785382
2 2.455587 7.549681 2.469275 -0.740220 0.828024 -0.512089
3 2.536636 7.520763 7.461959 0.610607 0.346044 -0.634013
4 7.531481 2.524738 2.499449 0.524688 0.412305 -0.009181
5 7.539276 2.493338 7.520164 0.654603 -0.111030 0.336064
6 7.393473 7.452589 2.521165 -1.775456 -0.790188 0.352747
7 7.485316 7.502321 7.551694 -0.244734 0.038676 0.861572
ITEM: TIMESTEP
6
ITEM: NUMBER OF ATOMS
8
ITEM: BOX BOUNDS pp pp pp
0 10.000000
0 10.000000
0 10.000000
ITEM: ATOMS id x y z vx vy vz 
0 2.562447 2.375361 2.417366 0.892099 -1.780558 -1.180482
1 2.505489 2.573971 7.554977 0.078413 1.056727 0.785382
2 2.448185 7.557962 2.464154 -0.740220 0.828024 -0.512089
3 2.542742 7.524223 7.455619 0.610607 0.346044 -0.634013
4 7.536728 2.528861 2.499357 0.524688 0.412305 -0.009181
5 7.545822 2.492228 7.523525 0.654603 -0.111030 0.336064
6 7.375718 7.444687 2.524692 -1.775456 -0.790188 0.352747
7 7.482869 7.502707 7.560310 -0.244734 0.038676 0.861572
ITEM: TIMESTEP
7
ITEM: NUMBER OF ATOMS
8
ITEM: BOX BOUNDS pp pp pp
0 10.000000
0 10.000000
0 10.000000
ITEM: ATOMS id x y z vx vy vz 
0 2.571368 2.357555 2.405561 0.892099 -1.780558 -1.180482
1 2.506273 2.584538 7.562831 0.078413 1.056727 0.785382
2 2.440782 7.566242 2.459033 -0.740220 0.828024 -0.512089
3 2.548849 7.527683 7.449279 0.610607 0.346044 -0.634013
4 7.541975 2.532984 2.499266 0.524688 0.412305 -0.009181
5 7.552368 2.491118 7.526885 0.654603 -0.111030 0.336064
6 7.357964 7.436785 2.528220 -1.775456 -0.790188 0.352747
7 7.480421 7.503094 7.568926 -0.244734 0.038676 0.861572
ITEM: TIMESTEP
8
ITEM: NUMBER OF ATOMS
8
ITEM: BOX BOUNDS pp pp pp
0 10.000000
0 10.000000
0 10.000000
ITEM: ATOMS id x y z vx vy vz 
0 2.580289 2.339750 2.393757 0.892099 -1.780558 -1.180482
1 2.507057 2.595105 7.570684 0.078413 1.056727 0.785382
2 2.433380 7.574522 2.453912 -0.740220 0.828024 -0.512089
3 2.554955 7.531144 7.442939 0.610607 0.346044 -0.634013
4 7.547222 2.537107 2.499174 0.524688 0.412305 -0.009181
5 7.558914 2.490007 7.530246 0.654603 -0.111030 0.336064
6 7.340209 7.428883 2.531747 -1.775456 -0.790188 0.352747
7 7.477974 7.503481 7.577541 -0.244734 0.038676 0.861572
ITEM: TIMESTEP
9
ITEM: NUMBER OF ATOMS
8
ITEM: BOX BOUNDS pp pp pp
0 10.000000
0 10.000000
0 10.000000
ITEM: ATOMS id x y z vx vy vz 
0 2.589210 2.321944 2.381952 0.892099 -1.780558 -1.180482
1 2.507841 2.605673 7.578538 0.078413 1.056727 0.785382
2 2.425978 7.582802 2.448791 -0.740220 0.828024 -0.512089
3 2.561061 7.534604 7.436599 0.610607 0.346044 -0.634013
4 7.552469 2.541230 2.499082 0.524688 0.412305 -0.009181
5 7.565460 2.488897 7.533606 0.654603 -0.111030 0.336064
6 7.322454 7.420981 2.535275 -1.775456 -0.790188 0.352747
7 7.475527 7.503868 7.586157 -0.244734 0.038676 0.861572
ITEM: TIMESTEP
10
ITEM: NUMBER OF ATOMS
8
ITEM: BOX BOUNDS pp pp pp
0 10.000000
0 10.000000
0 10.000000
ITEM: ATOMS id x y z vx vy vz 
0 2.598131 2.304139 2.370147 0.892099 -1.780558 -1.180482
1 2.508625 2.616240 7.586392 0.078413 1.056727 0.785382
2 2.418576 7.591083 2.443670 -0.740220 0.828024 -0.512089
3 2.567167 7.538065 7.430259 0.610607 0.346044 -0.634013
4 7.557716 2.545354 2.498990 0.524688 0.412305 -0.009181
5 7.572006 2.487787 7.536967 0.654603 -0.111030 0.336064
6 7.304700 7.413079 2.538802 -1.775456 -0.790188 0.352747
7 7.473079 7.504254 7.594773 -0.244734 0.038676 0.861572
ITEM: TIMESTEP
11
ITEM: NUMBER OF ATOMS
8
ITEM: BOX BOUNDS pp pp pp
0 10.000000
0 10.000000
0 10.000000
ITEM: ATOMS id x y z vx vy vz 
0 2.607052 2.286333 2.358342 0.892099 -1.780558 -1.180482
1 2.509410 2.626807 7.594246 0.078413 1.056727 0.785382
2 2.411174 7.599363 2.438549 -0.740220 0.828024 -0.512089
3 2.573273 7.541525 7.423918 0.610607 0.346044 -0.634013
4 7.562963 2.549477 2.498898 0.524688 0.412305 -0.009181
5 7.578552 2.486676 7.540328 0.654603 -0.111030 0.336064
6 7.286945 7.405177 2.542330 -1.775456 -0.790188 0.352747
7 7.470632 7.504641 7.603389 -0.244734 0.038676 0.861572
ITEM: TIMESTEP
12
ITEM: NUMBER OF ATOMS
8
ITEM: BOX BOUNDS pp pp pp
0 10.000000
0 10.000000
0 10.000000
ITEM: ATOMS id x y z vx vy vz 
0 2.615973 2.268527 2.346537 0.892099 -1.780558 -1.180482
1 2.510194 2.637375 7.602100 0.078413 1.056727 0.785382
2 2.403771 7.607643 2.433428 -0.740220 0.828024 -0.512089
3 2.579379 7.544986 7.417578 0.610607 0.346044 -0.634013
4 7.568209 2.553600 2.498806 0.524688 0.412305 -0.009181
5 7.585098 2.485566 7.543688 0.654603 -0.111030 0.336064
6 7.269191 7.397276 2.545857 -1.775456 -0.790188 0.352747
7 7.468185 7.505028 7.612004 -0.244734 0.038676 0.861572
ITEM: TIMESTEP
13
ITEM: NUMBER OF ATOMS
8
ITEM: BOX BOUNDS pp pp pp
0 10.000000
0 10.000000
0 10.000000
ITEM: ATOMS id x y z vx vy vz 
0 2.624894 2.250722 2.334733 0.892099 -1.780558 -1.180482
1 2.510978 2.647942 7.609953 0.078413 1.056727 0.785382
2 2.396369 7.615923 2.428308 -0.740220 0.828024 -0.512089
3 2.585485 7.548446 7.411238 0.610607 0.346044 -0.634013
4 7.573456 2.557723 2.498715 0.524688 0.412305 -0.009181
5 7.591644 2.484456 7.547049 0.654603 -0.111030 0.336064
6 7.251436 7.389374 2.549385 -1.775456 -0.790188 0.352747
7 7.465737 7.505415 7.620620 -0.244734 0.038676 0.861572
ITEM: TIMESTEP
14
ITEM: NUMBER OF ATOMS
8
ITEM: BOX BOUNDS pp pp pp
0 10.000000
0 10.000000
0 10.000000
ITEM: ATOMS id x y z vx vy vz 
0 2.633815 2.232916 2.322928 0.892099 -1.780558 -1.180482
1 2.511762 2.658509 7.617807 0.078413 1.056727 0.785382
2 2.388967 7.624204 2.423187 -0.740220 0.828024 -0.512089
3 2.591591 7.551907 7.404898 0.610607 0.346044 -0.634013
4 7.578703 2.561846 2.498623 0.524688 0.412305 -0.009181
5 7.598190 2.483346 7.550410 0.654603 -0.111030 0.336064
6 7.233682 7.381472 2.552912 -1.775456 -0.790188 0.352747
7 7.463290 7.505801 7.629236 -0.244734 0.038676 0.861572
ITEM: TIMESTEP
15
ITEM: NUMBER OF ATOMS
8
ITEM: BOX BOUNDS pp pp pp
0 10.000000
0 10.000000
0 10.000000
ITEM: ATOMS id x y z vx vy vz 
0 2.642736 2.215111 2.311123 0.892099 -1.780558 -1.180482
1 2.512546 2.669076 7.625661 0.078413 1.056727 0.785382
2 2.381565 7.632484 2.418066 -0.740220 0.828024 -0.512089
3 2.597697 7.555367 7.398558 0.610607 0.346044 -0.634013
4 7.583950 2.565969 2.498531 0.524688 0.412305 -0.009181
5 7.604736 2.482235 7.553770 0.654603 -0.111030 0.336064
6 7.215927 7.373570 2.556439 -1.775456 -0.790188 0.352747
7 7.460843 7.506188 7.637852 -0.244734 0.038676 0.861572
ITEM: TIMESTEP
16
ITEM: NUMBER OF ATOMS
8
ITEM: BOX BOUNDS pp pp pp
0 10.000000
0 10.000000
0 10.000000
ITEM: ATOMS id x y z vx vy vz 
0 2.651657 2.197305 2.299318 0.892099 -1.780558 -1.180482
1 2.513330 2.679644 7.633515 0.078413 1.056727 0.785382
2 2.374163 7.640764 2.412945 -0.740220 0.828024 -0.512089
3 2.603803 7.558827 7.392218 0.610607 0.346044 -0.634013
4 7.589197 2.570092 2.498439 0.524688 0.412305 -0.009181
5 7.611282 2.481125 7.557131 0.654603 -0.111030 0.336064
6 7.198173 7.365668 2.559967 -1.775456 -0.790188 0.352747
7 7.458395 7.506575 7.646467 -0.244734 0.038676 0.861572
ITEM: TIMESTEP
17
ITEM: NUMBER OF ATOMS
8
ITEM: BOX BOUNDS pp pp pp
0 10.000000
0 10.000000
0 10.000000
ITEM: ATOMS id x y z vx vy vz 
0 2.660578 2.179500 2.287513 0.892099 -1.780558 -1.180482
1 2.514114 2.690211 7.641369 0.078413 1.056727 0.785382
2 2.366760 7.649044 2.407824 -0.740220 0.828024 -0.512089
3 2.609909 7.562288 7.385878 0.610607 0.346044 -0.634013
4 7.594444 2.574215 2.498347 0.524688 0.412305 -0.009181
5 7.617828 2.480015 7.560492 0.654603 -0.111030 0.336064
6 7.180418 7.357766 2.563494 -1.775456 -0.790188 0.352747
7 7.455948 7.506962 7.655083 -0.244734 0.038676 0.861572
ITEM: TIMESTEP
18
ITEM: NUMBER OF ATOMS
8
ITEM: BOX BOUNDS pp pp pp
0 10.000000
0 10.000000
0 10.000000
ITEM: ATOMS id x y z vx vy vz 
0 2.669499 2.161694 2.275708 0.892099 -1.780558 -1.180482
1 2.514899 2.700778 7.649223 0.078413 1.056727 0.785382
2 2.359358 7.657324 2.402703 -0.740220 0.828024 -0.512089
3 2.616015 7.565748 7.379538 0.610607 0.346044 -0.634013
4 7.599691 2.578338 2.498256 0.524688 0.412305 -0.009181
5 7.624374 2.478904 7.563852 0.654603 -0.111030 0.336064
6 7.162663 7.349864 2.567022 -1.775456 -0.790188 0.352747
7 7.453500 7.507348 7.663699 -0.244734 0.038676 0.861572
ITEM: TIMESTEP
19
ITEM: NUMBER OF ATOMS
8
ITEM: BOX BOUNDS pp pp pp
0 10.000000
0 10.000000
0 10.000000
ITEM: ATOMS id x y z vx vy vz 
0 2.678420 2.143888 2.263904 0.892099 -1.780558 -1.180482
1 2.515683 2.711345 7.657076 0.078413 1.056727 0.785382
2 2.351956 7.665605 2.397582 -0.740220 0.828024 -0.512089
3 2.622121 7.569209 7.373197 0.610607 0.346044 -0.634013
4 7.604938 2.582461 2.498164 0.524688 0.412305 -0.009181
5 7.630921 2.477794 7.567213 0.654603 -0.111030 0.336064
6 7.144909 7.341962 2.570549 -1.775456 -0.790188 0.352747
7 7.451053 7.507735 7.672314 -0.244734 0.038676 0.861572
ITEM: TIMESTEP
20
ITEM: NUMBER OF ATOMS
8
ITEM: BOX BOUNDS pp pp pp
0 10.000000
0 10.000000
0 10.000000
ITEM: ATOMS id x y z vx vy vz 
0 2.687341 2.126083 2.252099 0.892099 -1.780558 -1.180482
1 2.516467 2.721913 7.664930 0.078413 1.056727 0.785382
2 2.344554 7.673885 2.392461 -0.740220 0.828024 -0.512089
3 2.628227 7.572669 7.366857 0.610607 0.346044 -0.634013
4 7.610185 2.586584 2.498072 0.524688 0.412305 -0.009181
5 7.637467 2.476684 7.570574 0.654603 -0.111030 0.336064
6 7.127154 7.334061 2.574077 -1.775456 -0.790188 0.352747
7 7.448606 7.508122 7.680930 -0.244734 0.038676 0.861572
ITEM: TIMESTEP
21
ITEM: NUMBER OF ATOMS
8
ITEM: BOX BOUNDS pp pp pp
0 10.000000
0 10.000000
0 10.000000
ITEM: ATOMS id x y z vx vy vz 
0 2.696262 2.108277 2.240294 0.892099 -1.780558 -1.180482
1 2.517251 2.732480 7.672784 0.078413 1.056727 0.785382
2 2.337152 7.682165 2.387340 -0.740220 0.828024 -0.512089
3 2.634334 7.576130 7.360517 0.610607 0.346044 -0.634013
4 7.615431 2.590707 2.497980 0.524688 0.412305 -0.009181
5 7.644013 2.475573 7.573934 0.654603 -0.111030 0.336064
6 7.109400 7.326159 2.577604 -1.775456 -0.790188 0.352747
7 7.446158 7.508509 7.689546 -0.244734 0.038676 0.861572
ITEM: TIMESTEP
22
ITEM: NUMBER OF ATOMS
8
ITEM: BOX BOUNDS pp pp pp
0 10.000000
0 10.000000
0 10.000000
ITEM: ATOMS id x y z vx vy vz 
0 2.705183 2.090472 2.228489 0.892099 -1.780558 -1.180482
1 2.518035 2.743047 7.680638 0.078413 1.056727 0.785382
2 2.329749 7.690445 2.382220 -0.740220 0.828024 -0.512089
3 2.640440 7.579590 7.354177 0.610607 0.346044 -0.634013
4 7.620678 2.594830 2.497888 0.524688 0.412305 -0.009181
5 7.650559 2.474463 7.577295 0.654603 -0.111030 0.336064
6 7.091645 7.318257 2.581132 -1.775456 -0.790188 0.352747
7 7.443711 7.508895 7.698162 -0.244734 0.038676 0.861572
ITEM: TIMESTEP
23
ITEM: NUMBER OF ATOMS
8
ITEM: BOX BOUNDS pp pp pp
0 10.000000
0 10.000000
0 10.000000
ITEM: ATOMS id x y z vx vy vz 
0 2.714104 2.072666 2.216684 0.892099 -1.780558 -1.180482
1 2.518819 2.753615 7.688492 0.078413 1.056727 0.785382
2 2.322347 7.698726 2.377099 -0.740220 0.828024 -0.512089
3 2.646546 7.583050 7.347837 0.610607 0.346044 -0.634013
4 7.625925 2.598953 2.497797 0.524688 0.412305 -0.009181
5 7.657105 2.473353 7.580655 0.654603 -0.111030 0.336064
6 7.073891 7.310355 2.584659 -1.775456 -0.790188 0.352747
7 7.441264 7.509282 7.706777 -0.244734 0.038676 0.861572
ITEM: TIMESTEP
24
ITEM: NUMBER OF ATOMS
8
ITEM: BOX BOUNDS pp pp pp
0 10.000000
0 10.000000
0 10.000000
ITEM: ATOMS id x y z vx vy vz 
0 2.723025 2.054861 2.204880 0.892099 -1.780558 -1.180482
1 2.519603 2.764182 7.696345 0.078413 1.056727 0.785382
2 2.314945 7.707006 2.371978 -0.740220 0.828024 -0.512089
3 2.652652 7.586511 7.341497 0.610607 0.346044 -0.634013
4 7.631172 2.603076 2.497705 0.524688 0.412305 -0.009181
5 7.663651 2.472243 7.584016 0.654603 -0.111030 0.336064
6 7.056136 7.302453 2.588187 -1.775456 -0.790188 0.352747
7 7.438816 7.509669 7.715393 -0.244734 0.038676 0.861572
ITEM: TIMESTEP
25
ITEM: NUMBER OF ATOMS
8
ITEM: BOX BOUNDS pp pp pp
0 10.000000
0 10.000000
0 10.000000
ITEM: ATOMS id x y z vx vy vz 
0 2.731946 2.037055 2.193075 0.892099 -1.780558 -1.180482
1 2.520387 2.774749 7.704199 0.078413 1.056727 0.785382
2 2.307543 7.715286 2.366857 -0.740220 0.828024 -0.512089
3 2.658758 7.589971 7.335157 0.610607 0.346044 -0.634013
4 7.636419 2.607199 2.497613 0.524688 0.412305 -0.009181
5 7.670197 2.471132 7.587377 0.654603 -0.111030 0.336064
6 7.038382 7.294551 2.591714 -1.775456 -0.790188 0.352747
7 7.436369 7.510056 7.724009 -0.244734 0.038676 0.861572
ITEM: TIMESTEP
26
ITEM: NUMBER OF ATOMS
8
ITEM: BOX BOUNDS pp pp pp
0 10.000000
0 10.000000
0 10.000000
ITEM: ATOMS id x y z vx vy vz 
0 2.740867 2.019249 2.181270 0.892099 -1.780558 -1.180482
1 2.521172 2.785316 7.712053 0.078413 1.056727 0.785382
2 2.300141 7.723566 2.361736 -0.740220 0.828024 -0.512089
3 2.664864 7.593432 7.328816 0.610607 0.346044 -0.634013
4 7.641666 2.611322 2.497521 0.524688 0.412305 -0.009181
5 7.676743 2.470022 7.590737 0.654603 -0.111030 0.336064
6 7.020627 7.286649 2.595242 -1.775456 -0.790188 0.352747
7 7.433922 7.510442 7.732624 -0.244734 0.038676 0.861572
ITEM: TIMESTEP
27
ITEM: NUMBER OF ATOMS
8
ITEM: BOX BOUNDS pp pp pp
0 10.000000
0 10.000000
0 10.000000
ITEM: ATOMS id x y z vx vy vz 
0 2.749788 2.001444 2.169465 0.892099 -1.780558 -1.180482
1 2.521956 2.795884 7.719907 0.078413 1.056727 0.785382
2 2.292738 7.731847 2.356615 -0.740220 0.828024 -0.512089
3 2.670970 7.596892 7.322476 0.610607 0.346044 -0.634013
4 7.646913 2.615445 2.497429 0.524688 0.412305 -0.009181
5 7.683289 2.468912 7.594098 0.654603 -0.111030 0.336064
6 7.002872 7.278747 2.598769 -1.775456 -0.790188 0.352747
7 7.431474 7.510829 7.741240 -0.244734 0.038676 0.861572
ITEM: TIMESTEP
28
ITEM: NUMBER OF ATOMS
8
ITEM: BOX BOUNDS pp pp pp
0 10.000000
0 10.000000
0 10.000000
ITEM: ATOMS id x y z vx vy vz 
0 2.758709 1.983638 2.157660 0.892099 -1.780558 -1.180482
1 2.522740 2.806451 7.727761 0.078413 1.056727 0.785382
2 2.285336 7.740127 2.351494 -0.740220 0.828024 -0.512089
3 2.677076 7.600353 7.316136 0.610607 0.346044 -0.634013
4 7.652160 2.619568 2.497337 0.524688 0.412305 -0.009181
5 7.689835 2.467801 7.597459 0.654603 -0.111030 0.336064
6 6.985118 7.270846 2.602297 -1.775456 -0.790188 0.352747
7 7.429027 7.511216 7.749856 -0.244734 0.038676 0.861572
ITEM: TIMESTEP
29
ITEM: NUMBER OF ATOMS
8
ITEM: BOX BOUNDS pp pp pp
0 10.000000
0 10.000000
0 10.000000
ITEM: ATOMS id x y z vx vy vz 
0 2.767630 1.965833 2.145855 0.892099 -1.780558 -1.180482
1 2.523524 2.817018 7.735615 0.078413 1.056727 0.785382
2 2.277934 7.748407 2.346373 -0.740220 0.828024 -0.512089
3 2.683182 7.603813 7.309796 0.610607 0.346044 -0.634013
4 7.657407 2.623691 2.497246 0.524688 0.412305 -0.009181
5 7.696381 2.466691 7.600819 0.654603 -0.111030 0.336064
6 6.967363 7.262944 2.605824 -1.775456 -0.790188 0.352747
7 7.426580 7.511603 7.758472 -0.244734 0.038676 0.861572
ITEM: TIMESTEP
30
ITEM: NUMBER OF ATOMS
8
ITEM: BOX BOUNDS pp pp pp
0 10.000000
0 10.000000
0 10.000000
ITEM: ATOMS id x y z vx vy vz 
0 2.776551 1.948027 2.134051 0.892099 -1.780558 -1.180482
1 2.524308 2.827586 7.743468 0.078413 1.056727 0.785382
2 2.270532 7.756687 2.341252 -0.740220 0.828024 -0.512089
3 2.689288 7.607274 7.303456 0.610607 0.346044 -0.634013
4 7.662653 2.627814 2.497154 0.524688 0.412305 -0.009181
5 7.702927 2.465581 7.604180 0.654603 -0.111030 0.336064
6 6.949609 7.255042 2.609351 -1.775456 -0.790188 0.352747
7 7.424132 7.511990 7.767087 -0.244734 0.038676 0.861572
ITEM: TIMESTEP
31
ITEM: NUMBER OF ATOMS
8
ITEM: BOX BOUNDS pp pp pp
0 10.000000
0 10.000000
0 10.000000
ITEM: ATOMS id x y z vx vy vz 
0 2.785472 1.930221 2.122246 0.892099 -1.780558 -1.180482
1 2.525092 2.838153 7.751322 0.078413 1.056727 0.785382
2 2.263130 7.764968 2.336132 -0.740220 0.828024 -0.512089
3 2.695394 7.610734 7.297116 0.610607 0.346044 -0.634013
4 7.667900 2.631937 2.497062 0.524688 0.412305 -0.009181
5 7.709473 2.464470 7.607541 0.654603 -0.111030 0.336064
6 6.931854 7.247140 2.612879 -1.775456 -0.790188 0.352747
7 7.421685 7.512376 7.775703 -0.244734 0.038676 0.861572
ITEM: TIMESTEP
32
ITEM: NUMBER OF ATOMS
8
ITEM: BOX BOUNDS pp pp pp
0 10.000000
0 10.000000
0 10.000000
ITEM: ATOMS id x y z vx vy vz 
0 2.794393 1.912416 2.110441 0.892099 -1.780558 -1.180482
1 2.525876 2.848720 7.759176 0.078413 1.056727 0.785382
2 2.255727 7.773248 2.331011 -0.740220 0.828024 -0.512089
3 2.701500 7.614194 7.290776 0.610607 0.346044 -0.634013
4 7.673147 2.636061 2.496970 0.524688 0.412305 -0.009181
5 7.716019 2.463360 7.610901 0.654603 -0.111030 0.336064
6 6.914100 7.239238 2.616406 -1.775456 -0.790188 0.352747
7 7.419238 7.512763 7.784319 -0.244734 0.038676 0.861572
ITEM: TIMESTEP
33
ITEM: NUMBER OF ATOMS
8
ITEM: BOX BOUNDS pp pp pp
0 10.000000
0 10.000000
0 10.000000
ITEM: ATOMS id x y z vx vy vz 
0 2.803314 1.894610 2.098636 0.892099 -1.780558 -1.180482
1 2.526661 2.859287 7.767030 0.078413 1.056727 0.785382
2 2.248325 7.781528 2.325890 -0.740220 0.828024 -0.512089
3 2.707606 7.617655 7.284436 0.610607 0.346044 -0.634013
4 7.678394 2.640184 2.496878 0.524688 0.412305 -0.009181
5 7.722565 2.462250 7.614262 0.654603 -0.111030 0.336064
6 6.896345 7.231336 2.619934 -1.775456 -0.790188 0.352747
7 7.416790 7.513150 7.792934 -0.244734 0.038676 0.861572
ITEM: TIMESTEP
34
ITEM: NUMBER OF ATOMS
8
ITEM: BOX BOUNDS pp pp pp
0 10.000000
0 10.000000
0 10.000000
ITEM: ATOMS id x y z vx vy vz 
0 2.812235 1.876805 2.086831 0.892099 -1.780558 -1.180482
1 2.527445 2.869855 7.774884 0.078413 1.056727 0.785382
2 2.240923 7.789808 2.320769 -0.740220 0.828024 -0.512089
3 2.713712 7.621115 7.278095 0.610607 0.346044 -0.634013
4 7.683641 2.644307 2.496787 0.524688 0.412305 -0.009181
5 7.729111 2.461140 7.617623 0.654603 -0.111030 0.336064
6 6.878591 7.223434 2.623461 -1.775456 -0.790188 0.352747
7 7.414343 7.513537 7.801550 -0.244734 0.038676 0.861572
ITEM: TIMESTEP
35
ITEM: NUMBER OF ATOMS
8
ITEM: BOX BOUNDS pp pp pp
0 10.000000
0 10.000000
0 10.000000
ITEM: ATOMS id x y z vx vy vz 
0 2.821156 1.858999 2.075027 0.892099 -1.780558 -1.180482
1 2.528229 2.880422 7.782737 0.078413 1.056727 0.785382
2 2.233521 7.798088 2.315648 -0.740220 0.828024 -0.512089
3 2.719818 7.624576 7.271755 0.610607 0.346044 -0.634013
4 7.688888 2.648430 2.496695 0.524688 0.412305 -0.009181
5 7.735657 2.460029 7.620983 0.654603 -0.111030 0.336064
6 6.860836 7.215532 2.626989 -1.775456 -0.790188 0.352747
7 7.411896 7.513923 7.810166 -0.244734 0.038676 0.861572
ITEM: TIMESTEP
36
ITEM: NUMBER OF ATOMS
8
ITEM: BOX BOUNDS pp pp pp
0 10.000000
0 10.000000
0 10.000000
ITEM: ATOMS id x y z vx vy vz 
0 2.830077 1.841194 2.063222 0.892099 -1.780558 -1.180482
1 2.529013 2.890989 7.790591 0.078413 1.056727 0.785382
2 2.226118 7.806369 2.310527 -0.740220 0.828024 -0.512089
3 2.725925 7.628036 7.265415 0.610607 0.346044 -0.634013
4 7.694135 2.652553 2.496603 0.524688 0.412305 -0.009181
5 7.742203 2.458919 7.624344 0.654603 -0.111030 0.336064
6 6.843081 7.207631 2.630516 -1.775456 -0.790188 0.352747
7 7.409448 7.514310 7.818782 -0.244734 0.038676 0.861572
ITEM: TIMESTEP
37
ITEM: NUMBER OF ATOMS
8
ITEM: BOX BOUNDS pp pp pp
0 10.000000
0 10.000000
0 10.000000
ITEM: ATOMS id x y z vx vy vz 
0 2.838998 1.823388 2.051417 0.892099 -1.780558 -1.180482
1 2.529797 2.901556 7.798445 0.078413 1.056727 0.785382
2 2.218716 7.814649 2.305406 -0.740220 0.828024 -0.512089
3 2.732031 7.631497 7.259075 0.610607 0.346044 -0.634013
4 7.699382 2.656676 2.496511 0.524688 0.412305 -0.009181
5 7.748749 2.457809 7.627705 0.654603 -0.111030 0.336064
6 6.825327 7.199729 2.634044 -1.775456 -0.790188 0.352747
7 7.407001 7.514697 7.827397 -0.244734 0.038676 0.861572
ITEM: TIMESTEP
38
ITEM: NUMBER OF ATOMS
8
ITEM: BOX BOUNDS pp pp pp
0 10.000000
0 10.000000
0 10.000000
ITEM: ATOMS id x y z vx vy vz 
0 2.847919 1.805582 2.039612 0.892099 -1.780558 -1.180482
1 2.530581 2.912124 7.806299 0.078413 1.056727 0.785382
2 2.211314 7.822929 2.300285 -0.740220 0.828024 -0.512089
3 2.738137 7.634957 7.252735 0.610607 0.346044 -0.634013
4 7.704628 2.660799 2.496419 0.524688 0.412305 -0.009181
5 7.755295 2.456698 7.631065 0.654603 -0.111030 0.336064
6 6.807572 7.191827 2.637571 -1.775456 -0.790188 0.352747
7 7.404554 7.515084 7.836013 -0.244734 0.038676 0.861572
ITEM: TIMESTEP
39
ITEM: NUMBER OF ATOMS
8
ITEM: BOX BOUNDS pp pp pp
0 10.000000
0 10.000000
0 10.000000
ITEM: ATOMS id x y z vx vy vz 
0 2.856840 1.787777 2.027807 0.892099 -1.780558 -1.180482
1 2.531365 2.922691 7.814153 0.078413 1.056727 0.785382
2 2.203912 7.831209 2.295164 -0.740220 0.828024 -0.512089
3 2.744243 7.638417 7.246395 0.610607 0.346044 -0.634013
4 7.709875 2.664922 2.496328 0.524688 0.412305 -0.009181
5 7.761841 2.455588 7.634426 0.654603 -0.111030 0.336064
6 6.789818 7.183925 2.641099 -1.775456 -0.790188 0.352747
7 7.402106 7.515470 7.844629 -0.244734 0.038676 0.861572
ITEM: TIMESTEP
40
ITEM: NUMBER OF ATOMS
8
ITEM: BOX BOUNDS pp pp pp
0 10.000000
0 10.000000
0 10.000000
ITEM: ATOMS id x y z vx vy vz 
0 2.865761 1.769971 2.016002 0.892099 -1.780558 -1.180482
1 2.532149 2.933258 7.822007 0.078413 1.056727 0.785382
2 2.196510 7.839490 2.290044 -0.740220 0.828024 -0.512089
3 2.750349 7.641878 7.240055 0.610607 0.346044 -0.634013
4 7.715122 2.669045 2.496236 0.524688 0.412305 -0.009181
5 7.768387 2.454478 7.637786 0.654603 -0.111030 0.336064
6 6.772063 7.176023 2.644626 -1.775456 -0.790188 0.352747
7 7.399659 7.515857 7.853244 -0.244734 0.038676 0.861572
ITEM: TIMESTEP
41
ITEM: NUMBER OF ATOMS
8
ITEM: BOX BOUNDS pp pp pp
0 10.000000
0 10.000000
0 10.000000
ITEM: ATOMS id x y z vx vy vz 
0 2.874682 1.752166 2.004198 0.892099 -1.780558 -1.180482
1 2.532934 2.943826 7.829860 0.078413 1.056727 0.785382
2 2.189107 7.847770 2.284923 -0.740220 0.828024 -0.512089
3 2.756455 7.645338 7.233715 0.610607 0.346044 -0.634013
4 7.720369 2.673168 2.496144 0.524688 0.412305 -0.009181
5 7.774933 2.453368 7.641147 0.654603 -0.111030 0.336064
6 6.754309 7.168121 2.648154 -1.775456 -0.790188 0.352747
7 7.397212 7.516244 7.861860 -0.244734 0.038676 0.861572
ITEM: TIMESTEP
42
ITEM: NUMBER OF ATOMS
8
ITEM: BOX BOUNDS pp pp pp
0 10.000000
0 10.000000
0 10.000000
ITEM: ATOMS id x y z vx vy vz 
0 2.883603 1.734360 1.992393 0.892099 -1.780558 -1.180482
1 2.533718 2.954393 7.837714 0.078413 1.056727 0.785382
2 2.181705 7.856050 2.279802 -0.740220 0.828024 -0.512089
3 2.762561 7.648799 7.227374 0.610607 0.346044 -0.634013
4 7.725616 2.677291 2.496052 0.524688 0.412305 -0.009181
5 7.781479 2.452257 7.644508 0.654603 -0.111030 0.336064
6 6.736554 7.160219 2.651681 -1.775456 -0.790188 0.352747
7 7.394764 7.516631 7.870476 -0.244734 0.038676 0.861572
ITEM: TIMESTEP
43
ITEM: NUMBER OF ATOMS
8
ITEM: BOX BOUNDS pp pp pp
0 10.000000
0 10.000000
0 10.000000
ITEM: ATOMS id x y z vx vy vz 
0 2.892524 1.716554 1.980588 0.892099 -1.780558 -1.180482
1 2.534502 2.964960 7.845568 0.078413 1.056727 0.785382
2 2.174303 7.864330 2.274681 -0.740220 0.828024 -0.512089
3 2.768667 7.652259 7.221034 0.610607 0.346044 -0.634013
4 7.730863 2.681414 2.495960 0.524688 0.412305 -0.009181
5 7.788025 2.451147 7.647868 0.654603 -0.111030 0.336064
6 6.718800 7.152317 2.655209 -1.775456 -0.790188 0.352747
7 7.392317 7.517017 7.879092 -0.244734 0.038676 0.861572
ITEM: TIMESTEP
44
ITEM: NUMBER OF ATOMS
8
ITEM: BOX BOUNDS pp pp pp
0 10.000000
0 10.000000
0 10.000000
ITEM: ATOMS id x y z vx vy vz 
0 2.901445 1.698749 1.968783 0.892099 -1.780558 -1.180482
1 2.535286 2.975527 7.853422 0.078413 1.056727 0.785382
2 2.166901 7.872611 2.269560 -0.740220 0.828024 -0.512089
3 2.774773 7.655720 7.214694 0.610607 0.346044 -0.634013
4 7.736110 2.685537 2.495869 0.524688 0.412305 -0.009181
5 7.794571 2.450037 7.651229 0.654603 -0.111030 0.336064
6 6.701045 7.144416 2.658736 -1.775456 -0.790188 0.352747
7 7.389870 7.517404 7.887707 -0.244734 0.038676 0.861572
ITEM: TIMESTEP
45
ITEM: NUMBER OF ATOMS
8
ITEM: BOX BOUNDS pp pp pp
0 10.000000
0 10.000000
0 10.000000
ITEM: ATOMS id x y z vx vy vz 
0 2.910366 1.680943 1.956978 0.892099 -1.780558 -1.180482
1 2.536070 2.986095 7.861276 0.078413 1.056727 0.785382
2 2.159499 7.880891 2.264439 -0.740220 0.828024 -0.512089
3 2.780879 7.659180 7.208354 0.610607 0.346044 -0.634013
4 7.741357 2.689660 2.495777 0.524688 0.412305 -0.009181
5 7.801117 2.448926 7.654590 0.654603 -0.111030 0.336064
6 6.683290 7.136514 2.662263 -1.775456 -0.790188 0.352747
7 7.387422 7.517791 7.896323 -0.244734 0.038676 0.861572
ITEM: TIMESTEP
46
ITEM: NUMBER OF ATOMS
8
ITEM: BOX BOUNDS pp pp pp
0 10.000000
0 10.000000
0 10.000000
ITEM: ATOMS id x y z vx vy vz 
0 2.919286 1.663138 1.945173 0.892099 -1.780558 -1.180482
1 2.536854 2.996662 7.869129 0.078413 1.056727 0.785382
2 2.152096 7.889171 2.259318 -0.740220 0.828024 -0.512089
3 2.786985 7.662641 7.202014 0.610607 0.346044 -0.634013
4 7.746604 2.693783 2.495685 0.524688 0.412305 -0.009181
5 7.807663 2.447816 7.657950 0.654603 -0.111030 0.336064
6 6.665536 7.128612 2.665791 -1.775456 -0.790188 0.352747
7 7.384975 7.518178 7.904939 -0.244734 0.038676 0.861572
ITEM: TIMESTEP
47
ITEM: NUMBER OF ATOMS
8
ITEM: BOX BOUNDS pp pp pp
0 10.000000
0 10.000000
0 10.000000
ITEM: ATOMS id x y z vx vy vz 
0 2.928207 1.645332 1.933369 0.892099 -1.780558 -1.180482
1 2.537638 3.007229 7.876983 0.078413 1.056727 0.785382
2 2.144694 7.897451 2.254197 -0.740220 0.828024 -0.512089
3 2.793091 7.666101 7.195674 0.610607 0.346044 -0.634013
4 7.751850 2.697906 2.495593 0.524688 0.412305 -0.009181
5 7.814209 2.446706 7.661311 0.654603 -0.111030 0.336064
6 6.647781 7.120710 2.669318 -1.775456 -0.790188 0.352747
7 7.382528 7.518564 7.913555 -0.244734 0.038676 0.861572
ITEM: TIMESTEP
48
ITEM: NUMBER OF ATOMS
8
ITEM: BOX BOUNDS pp pp pp
0 10.000000
0 10.000000
0 10.000000
ITEM: ATOMS id x y z vx vy vz 
0 2.937128 1.627527 1.921564 0.892099 -1.780558 -1.180482
1 2.538422 3.017796 7.884837 0.078413 1.056727 0.785382
2 2.137292 7.905732 2.249076 -0.740220 0.828024 -0.512089
3 2.799197 7.669561 7.189334 0.610607 0.346044 -0.634013
4 7.757097 2.702029 2.495501 0.524688 0.412305 -0.009181
5 7.820755 2.445595 7.664672 0.654603 -0.111030 0.336064
6 6.630027 7.112808 2.672846 -1.775456 -0.790188 0.352747
7 7.380080 7.518951 7.922170 -0.244734 0.038676 0.861572
ITEM: TIMESTEP
49
ITEM: NUMBER OF ATOMS
8
ITEM: BOX BOUNDS pp pp pp
0 10.000000
0 10.000000
0 10.000000
ITEM: ATOMS id x y z vx vy vz 
0 2.946049 1.609721 1.909759 0.892099 -1.780558 -1.180482
1 2.539207 3.028364 7.892691 0.078413 1.056727 0.785382
2 2.129890 7.914012 2.243956 -0.740220 0.828024 -0.512089
3 2.805303 7.673022 7.182993 0.610607 0.346044 -0.634013
4 7.762344 2.706152 2.495409 0.524688 0.412305 -0.009181
5 7.827301 2.444485 7.668032 0.654603 -0.111030 0.336064
6 6.612272 7.104906 2.676373 -1.775456 -0.790188 0.352747
7 7.377633 7.519338 7.930786 -0.244734 0.038676 0.861572
ITEM: TIMESTEP
50
ITEM: NUMBER OF ATOMS
8
ITEM: BOX BOUNDS pp pp pp
0 10.000000
0 10.000000
0 10.000000
ITEM: ATOMS id x y z vx vy vz 
0 2.954970 1.591915 1.897954 0.892099 -1.780558 -1.180482
1 2.539991 3.038931 7.900545 0.078413 1.056727 0.785382
2 2.122488 7.922292 2.238835 -0.740220 0.828024 -0.512089