ITEM: TIMESTEP
0
ITEM: NUMBER OF ATOMS
2
ITEM: BOX BOUNDS pp pp pp
0 10.000000
0 10.000000
0 10.000000
ITEM: ATOMS id x y z vx vy vz 
0 1.000000 0.500000 0.500000 0.406843 -1.418643 -0.982932
1 9.000000 0.500000 0.500000 -0.406843 1.418643 0.982932
