ITEM: TIMESTEP
0
ITEM: NUMBER OF ATOMS
500
ITEM: BOX BOUNDS pp pp pp
0 10.000000
0 10.000000
0 10.000000
ITEM: ATOMS id x y z vx vy vz 
0 0.926644 0.714286 0.714286 0.424716 -1.837986 -0.842797
1 0.519801 0.714286 2.142857 -0.388970 0.999299 1.123067
2 0.110484 0.714286 3.571429 -1.207603 0.770595 -0.174404
3 0.785898 0.714286 5.000000 0.143224 0.288615 -0.296328
4 0.742938 0.714286 6.428571 0.057305 0.354876 0.328504
5 0.807895 0.714286 7.857143 0.187219 -0.168458 0.673749
6 9.592866 0.714286 9.285714 -2.242839 -0.847616 0.690432
7 0.358227 2.142857 0.714286 -0.712117 -0.018753 1.199257
8 0.710777 2.142857 2.142857 -0.007017 0.672140 0.306205
9 0.501831 2.142857 3.571429 -0.424909 -0.906556 1.210256
10 0.471710 2.142857 5.000000 -0.485152 0.305598 -0.013064
11 0.931876 2.142857 6.428571 0.435180 -0.605640 -0.262228
12 0.806926 2.142857 7.857143 0.185280 -0.446273 -1.029244
13 1.137662 2.142857 9.285714 0.846753 -1.020155 -1.702551
14 1.226423 3.571429 0.714286 1.024274 0.395094 -1.259084
15 1.193844 3.571429 2.142857 0.959116 0.413649 -0.386292
16 0.749173 3.571429 3.571429 0.069775 -0.145223 -0.793854
17 1.246297 3.571429 5.000000 1.064024 -0.431028 -1.260488
18 1.423417 3.571429 6.428571 1.418262 -0.642548 1.277553
19 0.962031 3.571429 7.857143 0.495490 -0.578627 -2.412232
20 0.736402 3.571429 9.285714 0.044234 0.726332 -1.889165
21 1.304451 5.000000 0.714286 1.180331 -1.803352 1.588398
22 0.744309 5.000000 2.142857 0.060047 0.122294 3.007926
23 0.589990 5.000000 3.571429 -0.248592 -0.130915 -0.090725
24 0.409143 5.000000 5.000000 -0.610285 -2.204361 -0.156451
25 1.428214 5.000000 6.428571 1.427857 1.890278 -1.402405
26 0.068829 5.000000 7.857143 -1.290914 -0.108750 -0.147993
27 1.330946 5.000000 9.285714 1.233320 0.474928 1.819241
28 1.506594 6.428571 0.714286 1.584617 -0.496520 -1.382145
29 0.572672 6.428571 2.142857 -0.283227 0.093844 0.693374
30 0.229500 6.428571 3.571429 -0.969572 0.861595 -0.421127
31 0.087049 6.428571 5.000000 -1.254474 0.675918 0.738573
32 1.075747 6.428571 6.428571 0.722923 -0.650572 -0.235416
33 9.977009 6.428571 7.857143 -1.474553 -0.439285 -0.461078
34 2.272724 6.428571 9.285714 3.116876 -0.137768 1.103543
35 0.454091 7.857143 0.714286 -0.520389 0.327931 -0.676209
36 0.975353 7.857143 2.142857 0.522135 -0.649034 -0.012797
37 0.994660 7.857143 3.571429 0.560748 0.911475 -1.064882
38 1.009838 7.857143 5.000000 0.591104 0.720348 -0.198341
39 0.624257 7.857143 6.428571 -0.180057 -0.867140 -1.611618
40 1.358894 7.857143 7.857143 1.289217 1.458479 -1.982572
41 1.143596 7.857143 9.285714 0.858621 -2.075817 -1.158122
42 0.888950 9.285714 0.714286 0.349328 1.158533 0.219183
43 0.870111 9.285714 2.142857 0.311651 -0.922903 1.602573
44 0.593049 9.285714 3.571429 -0.242474 -0.206336 -0.481036
45 9.879172 9.285714 5.000000 -1.670226 -1.540213 -0.060002
46 1.056073 9.285714 6.428571 0.683575 -0.863295 1.120727
47 9.937711 9.285714 7.857143 -1.553150 1.119886 1.293801
48 9.969220 9.285714 9.285714 -1.490132 -0.000499 -0.191788
49 1.824141 0.714286 0.714286 -0.637432 0.198184 0.250442
50 1.426559 0.714286 2.142857 -1.432596 -1.080198 -0.017845
51 2.042147 0.714286 3.571429 -0.201420 -0.583575 -2.065014
52 2.038186 0.714286 5.000000 -0.209343 1.071009 0.260337
53 1.764132 0.714286 6.428571 -0.757450 -1.033561 0.243755
54 2.024796 0.714286 7.857143 -0.236122 0.440026 0.497198
55 2.342344 0.714286 9.285714 0.398974 -0.632886 0.734695
56 1.665125 2.142857 0.714286 -0.955464 -2.273998 0.342277
57 1.867485 2.142857 2.142857 -0.550744 1.173944 0.007262
58 1.683245 2.142857 3.571429 -0.919225 -0.661069 -1.005608
59 1.901468 2.142857 5.000000 -0.482778 -0.756950 0.566836
60 1.640202 2.142857 6.428571 -1.005310 1.124633 0.324592
61 1.336495 2.142857 7.857143 -1.612725 -0.177217 -0.575246
62 2.037885 2.142857 9.285714 -0.209945 -0.116773 0.159675
63 2.199391 3.571429 0.714286 0.113069 0.019593 0.687322
64 1.816469 3.571429 2.142857 -0.652777 2.350962 0.435150
65 1.828604 3.571429 3.571429 -0.628506 -1.554054 1.368787
66 2.097092 3.571429 5.000000 -0.091531 0.217306 -0.380542
67 2.816869 3.571429 6.428571 1.348023 0.694739 2.260702
68 1.826465 3.571429 7.857143 -0.632785 1.349158 0.833016
69 1.452452 3.571429 9.285714 -1.380811 -0.283763 0.377715
70 2.747699 5.000000 0.714286 1.209684 0.349327 -0.885221
71 2.484160 5.000000 2.142857 0.682605 1.002408 0.570346
72 2.781097 5.000000 3.571429 1.276480 -0.565923 0.213433
73 1.773158 5.000000 5.000000 -0.739397 -0.741906 0.637343
74 1.812440 5.000000 6.428571 -0.660834 0.002410 1.683242
75 1.635538 5.000000 7.857143 -1.014638 0.564691 0.670339
76 2.258565 5.000000 9.285714 0.231416 0.293764 0.711995
77 1.534676 6.428571 0.714286 -1.216362 0.000604 1.919167
78 3.211877 6.428571 2.142857 2.138039 0.574754 1.088967
79 2.088349 6.428571 3.571429 -0.109016 -2.228765 -0.098582
80 2.302444 6.428571 5.000000 0.319173 -0.239032 0.484127
81 1.747667 6.428571 6.428571 -0.790380 1.059241 -0.513933
82 3.531798 6.428571 7.857143 2.777882 -1.938280 -1.633749
83 2.751059 6.428571 9.285714 1.216404 0.434242 0.805402
84 1.945564 7.857143 0.714286 -0.394586 0.508761 -0.842597
85 0.781300 7.857143 2.142857 -2.723113 0.587191 -0.938544
86 2.006693 7.857143 3.571429 -0.272328 0.900443 0.561286
87 1.767107 7.857143 5.000000 -0.751499 -1.076487 -1.430019
88 1.647858 7.857143 6.428571 -0.989999 0.179729 -1.373353
89 2.463900 7.857143 7.857143 0.642086 1.636434 -2.436202
90 2.150214 7.857143 9.285714 0.014714 -0.661303 0.577367
91 1.260472 9.285714 0.714286 -1.764770 0.374467 -0.031351
92 2.119424 9.285714 2.142857 -0.046867 0.055465 1.385770
93 2.136841 9.285714 3.571429 -0.012031 0.219613 -0.281117
94 2.293634 9.285714 5.000000 0.301555 1.355142 1.660375
95 2.632913 9.285714 6.428571 0.980111 0.180231 -1.792716
96 1.911364 9.285714 7.857143 -0.462987 -0.788409 0.916461
97 1.601940 9.285714 9.285714 -1.081835 -0.611624 -0.657855
98 3.300787 0.714286 0.714286 -0.541283 0.385165 1.077834
99 4.248198 0.714286 2.142857 1.353539 -0.780519 1.175755
100 2.871111 0.714286 3.571429 -1.400636 0.448484 0.285578
101 2.902987 0.714286 5.000000 -1.336882 1.128545 -0.214756
102 3.525412 0.714286 6.428571 -0.092033 -0.261865 -0.184567
103 2.791427 0.714286 7.857143 -1.560003 1.092439 -0.826182
104 3.388243 0.714286 9.285714 -0.366370 1.706940 0.890485
105 2.496078 2.142857 0.714286 -2.150702 -0.922903 0.148075
106 3.535943 2.142857 2.142857 -0.070971 1.685444 1.045640
107 3.299466 2.142857 3.571429 -0.543924 0.318269 0.283171
108 3.598309 2.142857 5.000000 0.053761 0.356615 0.790926
109 4.497997 2.142857 6.428571 1.853137 0.542526 2.031229
110 2.989608 2.142857 7.857143 -1.163641 -0.438784 -0.442758
111 3.814410 2.142857 9.285714 0.485962 0.932971 -0.262897
112 2.736432 3.571429 0.714286 -1.669992 -0.599723 0.433913
113 3.080207 3.571429 2.142857 -0.982443 -1.044092 0.678630
114 3.965670 3.571429 3.571429 0.788482 -1.928753 0.490713
115 3.474680 3.571429 5.000000 -0.193497 -1.337853 -0.592296
116 3.497514 3.571429 6.428571 -0.147830 -0.836316 -0.658089
117 4.185030 3.571429 7.857143 1.227202 -0.274670 -0.054285
118 3.421023 3.571429 9.285714 -0.300811 0.463862 -0.544021
119 3.563608 5.000000 0.714286 -0.015642 0.065996 0.728343
120 3.327866 5.000000 2.142857 -0.487124 0.762070 0.195380
121 4.596118 5.000000 3.571429 2.049379 -1.288174 -0.392611
122 4.132208 5.000000 5.000000 1.121559 0.904655 -0.375728
123 3.491028 5.000000 6.428571 -0.160801 -0.217502 1.723460
124 4.203116 5.000000 7.857143 1.263375 -1.662806 0.590405
125 3.188408 5.000000 9.285714 -0.766042 -0.132085 -1.175941
126 3.590754 6.428571 0.714286 0.038651 -0.418190 -1.032721
127 3.211375 6.428571 2.142857 -0.720107 0.220549 1.433778
128 4.194039 6.428571 3.571429 1.245221 -0.496186 -1.234813
129 3.825208 6.428571 5.000000 0.507559 -0.261030 -0.665444
130 4.123533 6.428571 6.428571 1.104208 0.010600 0.227809
131 3.313190 6.428571 7.857143 -0.516477 -0.790047 -0.315183
132 4.231967 6.428571 9.285714 1.321077 -1.583942 -0.949142
133 3.329337 7.857143 0.714286 -0.484182 -0.923906 -0.390170
134 4.253096 7.857143 2.142857 1.363334 -0.509926 -0.197773
135 3.876692 7.857143 3.571429 0.610527 0.382825 0.964134
136 3.782349 7.857143 5.000000 0.421841 -1.047536 -1.573306
137 3.417813 7.857143 6.428571 -0.307230 1.031159 0.784340
138 3.066784 7.857143 7.857143 -1.009289 0.101333 1.545405
139 3.742248 7.857143 9.285714 0.341639 0.276246 0.496663
140 4.050117 9.285714 0.714286 0.957378 -0.715362 1.283370
141 3.876542 9.285714 2.142857 0.610226 0.312552 0.263413
142 3.353191 9.285714 3.571429 -0.436476 -1.383220 -0.372084
143 3.475499 9.285714 5.000000 -0.191859 0.356448 -0.375895
144 4.474796 9.285714 6.428571 1.806734 0.273805 -0.047432
145 3.266319 9.285714 7.857143 -0.610219 -0.544828 1.487402
146 3.647370 9.285714 9.285714 0.151883 -0.859116 0.557241
147 5.790520 0.714286 0.714286 1.581039 1.242111 1.192303
148 4.899658 0.714286 2.142857 -0.200685 -1.744679 -0.123020
149 4.207127 0.714286 3.571429 -1.585745 0.715634 0.418869
150 4.712927 0.714286 5.000000 -0.574146 1.376806 -1.085776
151 4.859005 0.714286 6.428571 -0.281990 1.035873 0.281733
152 4.842256 0.714286 7.857143 -0.315488 -0.539814 -0.407521
153 4.809393 0.714286 9.285714 -0.381214 -0.115670 0.236902
154 5.458262 2.142857 0.714286 0.916524 0.668997 -0.077955
155 5.104224 2.142857 2.142857 0.208448 -0.046467 -0.138131
156 4.316699 2.142857 3.571429 -1.366603 1.297440 1.109460
157 5.349894 2.142857 5.000000 0.699789 0.637873 -0.533591
158 6.428440 2.142857 6.428571 2.856880 0.917927 1.208016
159 4.759246 2.142857 7.857143 -0.481508 0.298979 -0.121783
160 5.569238 2.142857 9.285714 1.138475 1.845480 -0.793887
161 4.358989 3.571429 0.714286 -1.282022 0.135533 -0.447070
162 5.447681 3.571429 2.142857 0.895362 2.024939 -1.608041
163 5.053409 3.571429 3.571429 0.106817 -1.503405 0.308278
164 4.839983 3.571429 5.000000 -0.320034 0.305966 -1.069562
165 6.095748 3.571429 6.428571 2.191496 0.632591 -0.983276
166 5.196829 3.571429 7.857143 0.393658 -0.886864 -0.834707
167 5.235827 3.571429 9.285714 0.471653 -1.241738 0.656599
168 5.564557 5.000000 0.714286 1.129114 -0.626133 -1.131443
169 5.643255 5.000000 2.142857 1.286509 -1.088756 -0.615932
170 4.984540 5.000000 3.571429 -0.030920 0.098324 -0.150701
171 4.582127 5.000000 5.000000 -0.835746 0.186249 -0.824510
172 5.694555 5.000000 6.428571 1.389110 -0.333174 0.430804
173 4.540822 5.000000 7.857143 -0.918355 0.632758 -1.206330
174 4.979642 5.000000 9.285714 -0.040716 0.261770 0.021504
175 4.812368 6.428571 0.714286 -0.375263 0.034036 -0.518780
176 4.052273 6.428571 2.142857 -1.895453 -0.643852 -0.664508
177 5.464898 6.428571 3.571429 0.929797 0.456040 -1.523760
178 4.280843 6.428571 5.000000 -1.438313 1.463293 -0.659593
179 4.703399 6.428571 6.428571 -0.593202 1.075054 -0.632246
180 5.452947 6.428571 7.857143 0.905893 0.098692 0.920874
181 6.225077 6.428571 9.285714 2.450154 1.320207 -0.901101
182 4.875253 7.857143 0.714286 -0.249494 -0.687012 0.669336
183 4.971468 7.857143 2.142857 -0.057063 2.265211 0.161380
184 5.423577 7.857143 3.571429 0.847154 -0.452257 -0.969569
185 4.030794 7.857143 5.000000 -1.938413 0.588093 0.124171
186 5.052706 7.857143 6.428571 0.105413 -1.449514 0.876176
187 4.801921 7.857143 7.857143 -0.396158 -1.008354 -0.631076
188 4.910707 7.857143 9.285714 -0.178586 0.022569 -0.459072
189 5.645795 9.285714 0.714286 1.291591 1.112832 -0.010423
190 4.185330 9.285714 2.142857 -1.629340 0.763240 1.077868
191 4.814425 9.285714 3.571429 -0.371151 0.573985 -0.515638
192 4.584734 9.285714 5.000000 -0.830531 1.568000 -0.204191
193 5.636735 9.285714 6.428571 1.273471 0.119887 -0.700246
194 5.179929 9.285714 7.857143 0.359859 -0.500030 1.274243
195 4.962158 9.285714 9.285714 -0.075685 -0.708241 -1.006210
196 5.913296 0.714286 0.714286 -1.030551 1.312350 1.725934
197 5.898770 0.714286 2.142857 -1.059603 0.821110 -1.732807
198 6.718758 0.714286 3.571429 0.580372 0.306067 0.185317
199 5.913045 0.714286 5.000000 -1.031052 -0.610621 0.634668
200 6.598070 0.714286 6.428571 0.338998 0.219713 -0.501129
201 6.539164 0.714286 7.857143 0.221186 1.845012 -0.642376
202 6.844359 0.714286 9.285714 0.831575 -0.047938 -0.803281
203 6.438218 2.142857 0.714286 0.019294 -0.204263 -1.433730
204 7.421819 2.142857 2.142857 1.986495 0.805598 -0.239361
205 6.527948 2.142857 3.571429 0.198753 -0.460916 0.895834
206 5.903300 2.142857 5.000000 -1.050543 0.443770 -0.541413
207 6.732414 2.142857 6.428571 0.607686 1.767384 1.417965
208 6.315676 2.142857 7.857143 -0.225791 0.194907 1.068975
209 5.262521 2.142857 9.285714 -2.332100 -0.142616 1.354445
210 6.570707 3.571429 0.714286 0.284271 -0.246420 -0.194296
211 7.171919 3.571429 2.142857 1.486696 0.920836 -0.806624
212 6.553239 3.571429 3.571429 0.249335 0.436148 0.440867
213 7.304107 3.571429 5.000000 1.751071 -0.699214 -2.110313
214 6.091318 3.571429 6.428571 -0.674507 -1.289980 -0.118674
215 6.409400 3.571429 7.857143 -0.038342 0.900041 2.203100
216 5.851448 3.571429 9.285714 -1.154247 -1.179121 -1.469468
217 6.377758 5.000000 0.714286 -0.101627 -0.456269 -0.058832
218 6.673558 5.000000 2.142857 0.489974 -1.150270 0.796075
219 6.119517 5.000000 3.571429 -0.618108 0.478673 -1.342730
220 6.696258 5.000000 5.000000 0.535374 0.935713 0.151117
221 6.481763 5.000000 6.428571 0.106382 -1.218905 -1.262160
222 6.575922 5.000000 7.857143 0.294701 -0.005079 1.131592
223 6.843924 5.000000 9.285714 0.830706 0.108053 -0.376731
224 5.717472 6.428571 0.714286 -1.422199 -1.615300 1.377346
225 6.709179 6.428571 2.142857 0.561216 1.425415 1.164020
226 6.393437 6.428571 3.571429 -0.070269 0.844478 -0.757647
227 6.437851 6.428571 5.000000 0.018558 -0.573947 0.452768
228 5.931315 6.428571 6.428571 -0.994512 1.011735 0.474866
229 5.651127 6.428571 7.857143 -1.554888 0.142453 0.908738
230 6.442615 6.428571 9.285714 0.028086 -0.709578 -0.334273
231 6.595931 7.857143 0.714286 0.334719 1.065359 -1.100051
232 7.484854 7.857143 2.142857 2.112564 -1.261496 0.886740
233 6.211136 7.857143 3.571429 -0.434871 0.336790 -0.266307
234 6.749013 7.857143 5.000000 0.640883 0.128747 -0.459473
235 6.095296 7.857143 6.428571 -0.666550 -0.052318 -0.179887
236 6.478971 7.857143 7.857143 0.100799 -1.283026 0.800655
237 5.492980 7.857143 9.285714 -1.871182 0.544733 -0.015906
238 6.897197 9.285714 0.714286 0.937252 -0.507753 1.041561
239 7.047471 9.285714 2.142857 1.237800 1.880650 -0.124324
240 6.800330 9.285714 3.571429 0.743517 -0.235455 -1.124724
241 6.461971 9.285714 5.000000 0.066800 -1.155485 -0.982306
242 6.291939 9.285714 6.428571 -0.273264 -0.318297 0.536647
243 6.224642 9.285714 7.857143 -0.407859 -0.842267 0.450963
244 6.072947 9.285714 9.285714 -0.711248 0.487030 0.786413
245 7.892081 0.714286 0.714286 0.069875 1.183439 0.886807
246 7.901692 0.714286 2.142857 0.089098 -0.376501 0.474097
247 8.490936 0.714286 3.571429 1.267587 -0.436878 2.765248
248 7.549342 0.714286 5.000000 -0.615601 0.553191 -0.790243
249 7.847767 0.714286 6.428571 -0.018751 -1.241905 2.550519
250 8.149753 0.714286 7.857143 0.585220 0.389879 0.182509
251 7.211301 0.714286 9.285714 -1.291683 0.328031 0.521202
252 7.741974 2.142857 0.714286 -0.230338 -0.494848 -0.461880
253 7.621069 2.142857 2.142857 -0.472147 -0.105507 0.627681
254 6.978953 2.142857 3.571429 -1.756379 0.585753 0.637443
255 7.290266 2.142857 5.000000 -1.133754 -0.940121 -0.334106
256 8.610671 2.142857 6.428571 1.507056 -0.322944 0.411915
257 7.818766 2.142857 7.857143 -0.076755 1.403183 0.066168
258 7.328077 2.142857 9.285714 -1.058132 0.225965 -0.904311
259 8.045547 3.571429 0.714286 0.376809 1.111562 -0.462716
260 8.206937 3.571429 2.142857 0.699588 0.075858 0.265553
261 7.621587 3.571429 3.571429 -0.471111 -0.902811 -0.466026
262 7.920865 3.571429 5.000000 0.127444 -0.044127 2.078267
263 7.875716 3.571429 6.428571 0.037146 0.384162 0.027020
264 7.635144 3.571429 7.857143 -0.443998 -1.248458 2.505721
265 7.407092 3.571429 9.285714 -0.900102 -0.867809 1.731852
266 7.634876 5.000000 0.714286 -0.444533 -1.095877 -1.357473
267 7.362678 5.000000 2.142857 -0.988929 1.485190 -1.389299
268 8.232813 5.000000 3.571429 0.751340 0.371793 -2.589752
269 7.949716 5.000000 5.000000 0.185147 0.590166 -0.668018
270 7.542790 5.000000 6.428571 -0.628706 -0.072276 -3.081962
271 8.402945 5.000000 7.857143 1.091604 -0.015577 1.345954
272 7.518234 5.000000 9.285714 -0.677817 -1.673805 -1.472911
273 8.387985 6.428571 0.714286 1.061683 0.793830 0.079942
274 8.434805 6.428571 2.142857 1.155325 -1.846144 -0.978495
275 8.272462 6.428571 3.571429 0.830639 -1.454094 0.731285
276 7.598888 6.428571 5.000000 -0.516511 -0.719908 1.020265
277 7.889155 6.428571 6.428571 0.064025 2.539013 0.135003
278 7.656105 6.428571 7.857143 -0.402075 -0.081938 0.894731
279 7.247842 6.428571 9.285714 -1.218602 -0.217569 0.397205
280 8.106626 7.857143 0.714286 0.498967 0.349928 -0.006144
281 7.724690 7.857143 2.142857 -0.264906 0.238101 -1.235047
282 7.310308 7.857143 3.571429 -1.093669 0.898771 1.727238
283 7.326823 7.857143 5.000000 -1.060639 1.025676 -1.008951
284 7.211903 7.857143 6.428571 -1.290480 -1.132485 -0.222646
285 7.731292 7.857143 7.857143 -0.251701 -1.345309 0.716809
286 7.536739 7.857143 9.285714 -0.640808 -0.968771 2.150145
287 8.073295 9.285714 0.714286 0.432305 -0.221447 1.174150
288 7.430494 9.285714 2.142857 -0.853298 0.776646 -1.162200
289 7.564754 9.285714 3.571429 -0.584777 0.690761 -1.404745
290 7.866857 9.285714 5.000000 0.019427 2.766547 1.061286
291 7.802518 9.285714 6.428571 -0.109250 -1.107645 -1.232172
292 7.052285 9.285714 7.857143 -1.609716 0.272134 -2.578118
293 7.269054 9.285714 9.285714 -1.176178 -0.718504 -1.214219
294 9.324764 0.714286 0.714286 0.078100 0.715032 0.940063
295 9.344455 0.714286 2.142857 0.117482 1.612062 2.017289
296 9.294007 0.714286 3.571429 0.016586 0.793629 -0.552279
297 9.684903 0.714286 5.000000 0.798378 -1.404950 -0.001263
298 9.247989 0.714286 6.428571 -0.075451 -1.064786 -1.353127
299 8.668456 0.714286 7.857143 -1.234516 0.869351 0.471088
300 8.834978 0.714286 9.285714 -0.901473 1.786240 -0.119109
301 9.553251 2.142857 0.714286 0.535073 -0.097918 0.022172
302 8.613144 2.142857 2.142857 -1.345140 -0.111224 1.145165
303 9.158376 2.142857 3.571429 -0.254676 0.071211 -1.920925
304 9.482109 2.142857 5.000000 0.392789 1.618113 0.319678
305 8.818095 2.142857 6.428571 -0.935238 0.317801 1.105047
306 8.774317 2.142857 7.857143 -1.022795 -0.255614 -0.678983
307 9.415664 2.142857 9.285714 0.259899 -0.345544 0.911480
308 9.336515 3.571429 0.714286 0.101602 0.225932 0.205276
309 9.837902 3.571429 2.142857 1.104375 0.034069 0.824993
310 8.633203 3.571429 3.571429 -1.305022 -1.446171 -0.410496
311 0.118090 3.571429 5.000000 1.664751 -0.200853 2.412146
312 9.398397 3.571429 6.428571 0.225365 1.484756 0.904259
313 9.030451 3.571429 7.857143 -0.510526 0.513374 -0.884553
314 0.104132 3.571429 9.285714 1.636836 0.295034 0.453303
315 9.453859 5.000000 0.714286 0.336290 -1.514672 1.243219
316 9.651422 5.000000 2.142857 0.731415 -1.126835 0.753216
317 9.765991 5.000000 3.571429 0.960553 -0.877336 -0.459908
318 9.200065 5.000000 5.000000 -0.171298 -0.505212 0.555837
319 9.373574 5.000000 6.428571 0.175719 0.231448 0.232522
320 9.392329 5.000000 7.857143 0.213229 -2.985217 0.784441
321 9.379892 5.000000 9.285714 0.188356 -2.265239 0.435651
322 8.892012 6.428571 0.714286 -0.787405 0.442634 -1.207065
323 9.654882 6.428571 2.142857 0.738335 1.553858 0.664857
324 9.066724 6.428571 3.571429 -0.437980 2.272331 0.318374
325 9.601074 6.428571 5.000000 0.630720 0.100664 0.020701
326 9.921246 6.428571 6.428571 1.271064 -0.019889 0.722793
327 8.950951 6.428571 7.857143 -0.669526 0.251707 -1.509351
328 9.776973 6.428571 9.285714 0.982518 -1.173037 -0.049906
329 9.863611 7.857143 0.714286 1.155793 0.184544 -0.959539
330 8.595727 7.857143 2.142857 -1.379975 -0.406690 0.601838
331 0.083856 7.857143 3.571429 1.596284 0.038582 -0.020586
332 8.271142 7.857143 5.000000 -2.029145 -1.023732 -2.310032
333 9.245214 7.857143 6.428571 -0.081000 -0.197309 -1.244542
334 9.238177 7.857143 7.857143 -0.095075 -0.295196 1.488873
335 9.316557 7.857143 9.285714 0.061685 1.751504 0.948655
336 9.870531 9.285714 0.714286 1.169633 -1.053252 -0.929017
337 9.364163 9.285714 2.142857 0.156897 -1.398331 -0.247853
338 9.658342 9.285714 3.571429 0.745256 0.263943 -1.076583
339 9.588521 9.285714 5.000000 0.605613 -0.233917 0.773475
340 8.943747 9.285714 6.428571 -0.683935 0.162078 -1.500158
341 8.923488 9.285714 7.857143 -0.724454 -0.901073 0.479145
342 8.945118 9.285714 9.285714 -0.681193 -0.031557 0.482622
343 0.228188 0.000000 0.000000 0.456375 0.045402 -0.308965
344 0.490657 0.000000 0.000000 0.981314 -1.532691 0.866983
345 9.239171 0.000000 0.000000 -1.521658 -0.600057 -0.108110
346 0.359422 0.000000 0.000000 0.718845 -1.502637 -0.947471
347 9.389094 0.000000 0.000000 -1.221812 -0.425111 1.308176
348 0.771564 0.000000 0.000000 1.543128 0.467674 0.159308
349 0.035255 0.000000 0.000000 0.070511 0.977535 0.918868
350 9.562937 0.000000 0.000000 -0.874126 0.662779 -0.495044
351 9.658016 0.000000 0.000000 -0.683968 0.577094 -1.597042
352 0.138892 0.000000 0.000000 0.277785 0.154990 -0.573274
353 0.601332 0.000000 0.000000 1.202663 1.936781 -0.587582
354 0.120004 0.000000 0.000000 0.240008 -0.527912 0.185919
355 9.810246 0.000000 0.000000 -0.379509 -0.742140 0.080376
356 0.372176 0.000000 0.000000 0.744353 0.175450 -0.198274
357 0.790887 0.000000 0.000000 1.581775 -0.135762 1.308845
358 9.809711 0.000000 0.000000 -0.380579 -1.645388 1.516320
359 0.406393 0.000000 0.000000 0.812787 -1.621452 0.594283
360 9.970967 0.000000 0.000000 -0.058066 -1.136262 1.295572
361 9.977018 0.000000 0.000000 -0.045964 0.977936 2.267422
362 8.995607 0.000000 0.000000 -2.008786 -0.846212 -1.017008
363 0.322029 0.000000 0.000000 0.644059 -0.164212 -0.617503
364 0.646113 0.000000 0.000000 1.292226 -1.087252 1.128951
365 0.086322 0.000000 0.000000 0.172643 -1.672033 -2.290174
366 0.475881 0.000000 0.000000 0.951761 0.800817 1.051323
367 9.713111 0.000000 0.000000 -0.573778 -0.841331 -1.081497
368 9.433424 0.000000 0.000000 -1.133152 -0.663142 0.553597
369 9.732050 0.000000 0.000000 -0.535901 0.117179 -0.841995
370 9.337677 0.000000 0.000000 -1.324647 2.096282 0.794236
371 9.558207 0.000000 0.000000 -0.883587 1.640813 0.098897
372 9.293029 0.000000 0.000000 -1.413942 -0.787306 -0.651369
373 0.808405 0.000000 0.000000 1.616811 -0.313550 1.001711
374 9.512974 0.000000 0.000000 -0.974052 0.931032 0.925120
375 9.420302 0.000000 0.000000 -1.159395 2.049077 1.738003
376 9.853556 0.000000 0.000000 -0.292888 0.048779 -0.096609
377 0.158868 0.000000 0.000000 0.317735 -1.095443 -0.424604
378 9.524708 0.000000 0.000000 -0.950583 1.997359 -1.974582
379 0.549396 0.000000 0.000000 1.098792 1.303190 -2.401634
380 9.521850 0.000000 0.000000 -0.956300 -0.880546 -1.024496
381 0.278702 0.000000 0.000000 0.557405 -0.483649 -0.089455
382 0.005351 0.000000 0.000000 0.010702 -0.969473 0.456546
383 9.536376 0.000000 0.000000 -0.927248 -0.121888 2.724696
384 9.646582 0.000000 0.000000 -0.706835 2.242176 -0.010624
385 9.065913 0.000000 0.000000 -1.868174 0.788447 0.305470
386 0.123798 0.000000 0.000000 0.247596 -0.500331 1.084922
387 0.453114 0.000000 0.000000 0.906228 0.789785 -0.464956
388 9.781077 0.000000 0.000000 -0.437847 -0.964793 -1.230902
389 0.250068 0.000000 0.000000 0.500137 0.168496 -0.375226
390 0.447982 0.000000 0.000000 0.895964 -0.271694 -0.971408
391 0.564056 0.000000 0.000000 1.128111 0.258895 0.852540
392 0.477853 0.000000 0.000000 0.955706 -0.752069 0.766923
393 9.582829 0.000000 0.000000 -0.834342 -0.852062 1.040057
394 9.645930 0.000000 0.000000 -0.708139 0.273972 0.316067
395 0.001974 0.000000 0.000000 0.003949 -1.086750 -1.264266
396 0.468325 0.000000 0.000000 0.936650 -0.197376 -0.324578
397 9.922659 0.000000 0.000000 -0.154683 -1.008855 0.159074
398 9.813020 0.000000 0.000000 -0.373959 1.315426 0.744223
399 0.350831 0.000000 0.000000 0.701661 -0.428487 -0.424337
400 0.279020 0.000000 0.000000 0.558040 -0.236892 -0.414575
401 9.890297 0.000000 0.000000 -0.219406 -0.523031 0.268394
402 0.708045 0.000000 0.000000 1.416089 -0.043559 -0.864962
403 0.902264 0.000000 0.000000 1.804528 -0.724990 -1.330393
404 0.233035 0.000000 0.000000 0.466070 -1.402677 -0.376497
405 9.915337 0.000000 0.000000 -0.169326 -0.441358 -1.180487
406 0.425165 0.000000 0.000000 0.850330 0.401747 1.554799
407 0.798694 0.000000 0.000000 1.597387 0.764678 0.529593
408 9.410273 0.000000 0.000000 -1.179454 0.738768 0.225836
409 9.929846 0.000000 0.000000 -0.140308 -0.061010 -0.067023
410 0.310529 0.000000 0.000000 0.621058 -0.241071 1.159206
411 0.493248 0.000000 0.000000 0.986496 -2.607208 -0.519182
412 9.947916 0.000000 0.000000 -0.104168 -0.939419 0.372733
413 0.211322 0.000000 0.000000 0.422643 -2.295260 0.336661
414 0.430731 0.000000 0.000000 0.861463 -0.142749 -0.607507
415 9.785022 0.000000 0.000000 -0.429957 0.483854 -0.576951
416 9.701694 0.000000 0.000000 -0.596612 1.894290 -1.066453
417 9.897769 0.000000 0.000000 -0.204462 0.404890 -1.964653
418 0.929143 0.000000 0.000000 1.858286 0.170101 -0.473949
419 9.552590 0.000000 0.000000 -0.894820 0.693603 -0.641841
420 9.559042 0.000000 0.000000 -0.881915 0.618917 -0.978060
421 0.295485 0.000000 0.000000 0.590970 -1.772428 -0.388532
422 9.411610 0.000000 0.000000 -1.176780 0.322481 -1.173099
423 9.515682 0.000000 0.000000 -0.968636 0.299781 0.553430
424 9.660507 0.000000 0.000000 -0.678987 1.609856 1.124170
425 0.381771 0.000000 0.000000 0.763543 1.631319 -1.231236
426 0.792442 0.000000 0.000000 1.584884 -0.961550 0.172179
427 9.694556 0.000000 0.000000 -0.610887 1.400241 -0.809700
428 0.413966 0.000000 0.000000 0.827931 0.948450 1.429699
429 9.291023 0.000000 0.000000 -1.417953 0.923376 -1.578153
430 9.617631 0.000000 0.000000 -0.764738 0.482651 -1.807392
431 0.089030 0.000000 0.000000 0.178059 1.505182 1.743319
432 0.085486 0.000000 0.000000 0.170972 1.581941 0.843547
433 9.211674 0.000000 0.000000 -1.576652 0.057270 -0.353061
434 0.043947 0.000000 0.000000 0.087895 0.609790 -0.897691
435 9.672726 0.000000 0.000000 -0.654549 -0.189486 -0.446301
436 9.921355 0.000000 0.000000 -0.157291 -0.464526 0.578503
437 9.930532 0.000000 0.000000 -0.138937 -0.235989 0.218749
438 0.078800 0.000000 0.000000 0.157599 0.627208 -0.277406
439 0.728170 0.000000 0.000000 1.456340 -0.089025 0.092412
440 0.369736 0.000000 0.000000 0.739472 0.524440 -0.335343
441 0.360091 0.000000 0.000000 0.720182 -0.967367 1.636706
442 9.783551 0.000000 0.000000 -0.432899 0.464598 0.190633
443 9.898822 0.000000 0.000000 -0.202356 -0.906455 -0.109280
444 9.903703 0.000000 0.000000 -0.192594 0.141317 -1.241967
445 0.477218 0.000000 0.000000 0.954436 -0.396460 0.540927
446 0.028118 0.000000 0.000000 0.056235 -0.361758 -1.132547
447 9.918262 0.000000 0.000000 -0.163475 0.361696 -1.176208
448 0.280675 0.000000 0.000000 0.561350 1.015413 0.388580
449 9.838161 0.000000 0.000000 -0.323678 -0.767280 -1.522590
450 0.561247 0.000000 0.000000 1.122495 1.128311 -0.977793
451 9.841053 0.000000 0.000000 -0.317895 0.086155 2.070244
452 9.613953 0.000000 0.000000 -0.772093 1.216469 0.170841
453 0.886518 0.000000 0.000000 1.773036 0.019627 -1.756509
454 0.134496 0.000000 0.000000 0.268993 1.836353 2.096588
455 9.925032 0.000000 0.000000 -0.149936 0.576727 -1.205962
456 0.644909 0.000000 0.000000 1.289819 -0.088423 0.745460
457 0.073701 0.000000 0.000000 0.147403 2.218808 -0.040311
458 0.323350 0.000000 0.000000 0.646700 -1.895388 -0.400367
459 9.804261 0.000000 0.000000 -0.391477 1.566997 -0.293654
460 0.254231 0.000000 0.000000 0.508461 -0.538242 -0.844201
461 0.752375 0.000000 0.000000 1.504749 -1.125731 1.249170
462 9.900527 0.000000 0.000000 -0.198946 -0.272664 -0.214789
463 0.358938 0.000000 0.000000 0.717875 -0.907057 -1.232573
464 0.746407 0.000000 0.000000 1.492814 0.672407 1.336960
465 0.188839 0.000000 0.000000 0.377678 -1.338522 0.430403
466 9.478556 0.000000 0.000000 -1.042887 0.962491 -1.815716
467 9.423512 0.000000 0.000000 -1.152977 -1.660700 -0.753469
468 0.183005 0.000000 0.000000 0.366010 -1.134992 0.180771
469 9.991711 0.000000 0.000000 -0.016578 -0.840127 -0.564682
470 0.538531 0.000000 0.000000 1.077062 -1.623391 0.448188
471 9.955455 0.000000 0.000000 -0.089091 -0.079731 -1.024062
472 0.106548 0.000000 0.000000 0.213095 1.584047 -1.758616
473 0.518873 0.000000 0.000000 1.037746 0.383360 0.976437
474 9.939876 0.000000 0.000000 -0.120249 -0.348921 0.002281
475 9.444373 0.000000 0.000000 -1.111254 1.223389 -0.568560
476 9.981932 0.000000 0.000000 -0.036135 -2.170127 -0.506745
477 9.529389 0.000000 0.000000 -0.941222 -1.681026 1.058444
478 0.725362 0.000000 0.000000 1.450724 0.346117 -0.754806
479 8.902668 0.000000 0.000000 -2.194664 1.860959 0.297647
480 0.264461 0.000000 0.000000 0.528921 0.414484 -0.279746
481 0.558138 0.000000 0.000000 1.116277 -0.994881 2.029625
482 9.236279 0.000000 0.000000 -1.527441 -0.171768 -0.199444
483 0.216587 0.000000 0.000000 0.433174 2.275240 1.427927
484 9.306134 0.000000 0.000000 -1.387732 -0.691124 -0.364595
485 9.791524 0.000000 0.000000 -0.416952 1.663413 -2.027170
486 8.930232 0.000000 0.000000 -2.139536 -0.604503 0.163620
487 1.169497 0.000000 0.000000 2.338995 -0.121320 0.148777
488 9.984139 0.000000 0.000000 -0.031722 -0.930024 -0.895385
489 0.740506 0.000000 0.000000 1.481013 0.178793 0.354881
490 0.508777 0.000000 0.000000 1.017554 0.129850 0.742417
491 0.187702 0.000000 0.000000 0.375405 0.256421 0.339570
492 0.307821 0.000000 0.000000 0.615642 -0.973050 -1.236786
493 0.842790 0.000000 0.000000 1.685579 -0.356677 -2.326547
494 9.029155 0.000000 0.000000 -1.941689 -0.620951 0.956144
495 8.757994 0.000000 0.000000 -2.484012 0.709182 1.521368
496 9.773354 0.000000 0.000000 -0.453292 0.582209 0.265285
497 0.384797 0.000000 0.000000 0.769594 0.856881 1.373501
498 0.049647 0.000000 0.000000 0.099295 0.111730 0.441669
499 9.326644 0.000000 0.000000 -1.346711 -1.283160 -0.279145
ITEM: TIMESTEP
1
ITEM: NUMBER OF ATOMS
500
ITEM: BOX BOUNDS pp pp pp
0 10.000000
0 10.000000
0 10.000000
ITEM: ATOMS id x y z vx vy vz 
0 1.139001 0.714286 0.714286 0.424716 -1.837986 -0.842797