ITEM: TIMESTEP
0
ITEM: NUMBER OF ATOMS
2
ITEM: BOX BOUNDS pp pp pp
0 10.000000
0 10.000000
0 10.000000
ITEM: ATOMS id x y z vx vy vz 
0 1.203421 1.000000 1.000000 0.406843 -1.418643 -0.982932
1 8.796579 9.000000 9.000000 -0.406843 1.418643 0.982932
ITEM: TIMESTEP
1
ITEM: NUMBER OF ATOMS
2
ITEM: BOX BOUNDS pp pp pp
0 10.000000
0 10.000000
0 10.000000
ITEM: ATOMS id x y z vx vy vz 
0 1.406843 1.000000 1.000000 0.406843 -1.418643 -0.982932
1 8.593157 9.000000 9.000000 -0.406843 1.418643 0.982932
ITEM: TIMESTEP
2
ITEM: NUMBER OF ATOMS
2
ITEM: BOX BOUNDS pp pp pp
0 10.000000
0 10.000000
0 10.000000
ITEM: ATOMS id x y z vx vy vz 
0 1.610264 1.000000 1.000000 0.406843 -1.418643 -0.982932
1 8.389736 9.000000 9.000000 -0.406843 1.418643 0.982932
ITEM: TIMESTEP
3
ITEM: NUMBER OF ATOMS
2
ITEM: BOX BOUNDS pp pp pp
0 10.000000
0 10.000000
0 10.000000
ITEM: ATOMS id x y z vx vy vz 
0 1.813686 1.000000 1.000000 0.406843 -1.418643 -0.982932
1 8.186314 9.000000 9.000000 -0.406843 1.418643 0.982932
ITEM: TIMESTEP
4
ITEM: NUMBER OF ATOMS
2
ITEM: BOX BOUNDS pp pp pp
0 10.000000
0 10.000000
0 10.000000
ITEM: ATOMS id x y z vx vy vz 
0 2.017107 1.000000 1.000000 0.406843 -1.418643 -0.982932
1 7.982893 9.000000 9.000000 -0.406843 1.418643 0.982932
ITEM: TIMESTEP
5
ITEM: NUMBER OF ATOMS
2
ITEM: BOX BOUNDS pp pp pp
0 10.000000
0 10.000000
0 10.000000
ITEM: ATOMS id x y z vx vy vz 
0 2.220529 1.000000 1.000000 0.406843 -1.418643 -0.982932
1 7.779471 9.000000 9.000000 -0.406843 1.418643 0.982932
ITEM: TIMESTEP
6
ITEM: NUMBER OF ATOMS
2
ITEM: BOX BOUNDS pp pp pp
0 10.000000
0 10.000000
0 10.000000
ITEM: ATOMS id x y z vx vy vz 
0 2.423950 1.000000 1.000000 0.406843 -1.418643 -0.982932
1 7.576050 9.000000 9.000000 -0.406843 1.418643 0.982932
ITEM: TIMESTEP
7
ITEM: NUMBER OF ATOMS
2
ITEM: BOX BOUNDS pp pp pp
0 10.000000
0 10.000000
0 10.000000
ITEM: ATOMS id x y z vx vy vz 
0 2.627371 1.000000 1.000000 0.406843 -1.418643 -0.982932
1 7.372629 9.000000 9.000000 -0.406843 1.418643 0.982932
ITEM: TIMESTEP
8
ITEM: NUMBER OF ATOMS
2
ITEM: BOX BOUNDS pp pp pp
0 10.000000
0 10.000000
0 10.000000
ITEM: ATOMS id x y z vx vy vz 
0 2.830793 1.000000 1.000000 0.406843 -1.418643 -0.982932
1 7.169207 9.000000 9.000000 -0.406843 1.418643 0.982932
ITEM: TIMESTEP
9
ITEM: NUMBER OF ATOMS
2
ITEM: BOX BOUNDS pp pp pp
0 10.000000
0 10.000000
0 10.000000
ITEM: ATOMS id x y z vx vy vz 
0 3.034214 1.000000 1.000000 0.406843 -1.418643 -0.982932
1 6.965786 9.000000 9.000000 -0.406843 1.418643 0.982932
ITEM: TIMESTEP
10
ITEM: NUMBER OF ATOMS
2
ITEM: BOX BOUNDS pp pp pp
0 10.000000
0 10.000000
0 10.000000
ITEM: ATOMS id x y z vx vy vz 
0 3.237636 1.000000 1.000000 0.406843 -1.418643 -0.982932
1 6.762364 9.000000 9.000000 -0.406843 1.418643 0.982932
ITEM: TIMESTEP
11
ITEM: NUMBER OF ATOMS
2
ITEM: BOX BOUNDS pp pp pp
0 10.000000
0 10.000000
0 10.000000
ITEM: ATOMS id x y z vx vy vz 
0 3.441057 1.000000 1.000000 0.406843 -1.418643 -0.982932
1 6.558943 9.000000 9.000000 -0.406843 1.418643 0.982932
ITEM: TIMESTEP
12
ITEM: NUMBER OF ATOMS
2
ITEM: BOX BOUNDS pp pp pp
0 10.000000
0 10.000000
0 10.000000
ITEM: ATOMS id x y z vx vy vz 
0 3.644478 1.000000 1.000000 0.406843 -1.418643 -0.982932
1 6.355522 9.000000 9.000000 -0.406843 1.418643 0.982932
ITEM: TIMESTEP
13
ITEM: NUMBER OF ATOMS
2
ITEM: BOX BOUNDS pp pp pp
0 10.000000
0 10.000000
0 10.000000
ITEM: ATOMS id x y z vx vy vz 
0 3.847900 1.000000 1.000000 0.406843 -1.418643 -0.982932
1 6.152100 9.000000 9.000000 -0.406843 1.418643 0.982932
ITEM: TIMESTEP
14
ITEM: NUMBER OF ATOMS
2
ITEM: BOX BOUNDS pp pp pp
0 10.000000
0 10.000000
0 10.000000
ITEM: ATOMS id x y z vx vy vz 
0 4.051321 1.000000 1.000000 0.406843 -1.418643 -0.982932
1 5.948679 9.000000 9.000000 -0.406843 1.418643 0.982932
ITEM: TIMESTEP
15
ITEM: NUMBER OF ATOMS
2
ITEM: BOX BOUNDS pp pp pp
0 10.000000
0 10.000000
0 10.000000
ITEM: ATOMS id x y z vx vy vz 
0 4.254743 1.000000 1.000000 0.406843 -1.418643 -0.982932
1 5.745257 9.000000 9.000000 -0.406843 1.418643 0.982932
ITEM: TIMESTEP
16
ITEM: NUMBER OF ATOMS
2
ITEM: BOX BOUNDS pp pp pp
0 10.000000
0 10.000000
0 10.000000
ITEM: ATOMS id x y z vx vy vz 
0 4.458164 1.000000 1.000000 0.406843 -1.418643 -0.982932
1 5.541836 9.000000 9.000000 -0.406843 1.418643 0.982932
ITEM: TIMESTEP
17
ITEM: NUMBER OF ATOMS
2
ITEM: BOX BOUNDS pp pp pp
0 10.000000
0 10.000000
0 10.000000
ITEM: ATOMS id x y z vx vy vz 
0 4.661586 1.000000 1.000000 0.406843 -1.418643 -0.982932
1 5.338414 9.000000 9.000000 -0.406843 1.418643 0.982932
ITEM: TIMESTEP
18
ITEM: NUMBER OF ATOMS
2
ITEM: BOX BOUNDS pp pp pp
0 10.000000
0 10.000000
0 10.000000
ITEM: ATOMS id x y z vx vy vz 
0 4.865007 1.000000 1.000000 0.406843 -1.418643 -0.982932
1 5.134993 9.000000 9.000000 -0.406843 1.418643 0.982932
ITEM: TIMESTEP
19
ITEM: NUMBER OF ATOMS
2
ITEM: BOX BOUNDS pp pp pp
0 10.000000
0 10.000000
0 10.000000
ITEM: ATOMS id x y z vx vy vz 
0 5.068428 1.000000 1.000000 0.406843 -1.418643 -0.982932
1 4.931572 9.000000 9.000000 -0.406843 1.418643 0.982932
ITEM: TIMESTEP
20
ITEM: NUMBER OF ATOMS
2
ITEM: BOX BOUNDS pp pp pp
0 10.000000
0 10.000000
0 10.000000
ITEM: ATOMS id x y z vx vy vz 
0 5.271850 1.000000 1.000000 0.406843 -1.418643 -0.982932
1 4.728150 9.000000 9.000000 -0.406843 1.418643 0.982932
ITEM: TIMESTEP
21
ITEM: NUMBER OF ATOMS
2
ITEM: BOX BOUNDS pp pp pp
0 10.000000
0 10.000000
0 10.000000
ITEM: ATOMS id x y z vx vy vz 
0 5.475271 1.000000 1.000000 0.406843 -1.418643 -0.982932
1 4.524729 9.000000 9.000000 -0.406843 1.418643 0.982932
ITEM: TIMESTEP
22
ITEM: NUMBER OF ATOMS
2
ITEM: BOX BOUNDS pp pp pp
0 10.000000
0 10.000000
0 10.000000
ITEM: ATOMS id x y z vx vy vz 
0 5.678693 1.000000 1.000000 0.406843 -1.418643 -0.982932
1 4.321307 9.000000 9.000000 -0.406843 1.418643 0.982932
ITEM: TIMESTEP
23
ITEM: NUMBER OF ATOMS
2
ITEM: BOX BOUNDS pp pp pp
0 10.000000
0 10.000000
0 10.000000
ITEM: ATOMS id x y z vx vy vz 
0 5.882114 1.000000 1.000000 0.406843 -1.418643 -0.982932
1 4.117886 9.000000 9.000000 -0.406843 1.418643 0.982932
ITEM: TIMESTEP
24
ITEM: NUMBER OF ATOMS
2
ITEM: BOX BOUNDS pp pp pp
0 10.000000
0 10.000000
0 10.000000
ITEM: ATOMS id x y z vx vy vz 
0 6.085535 1.000000 1.000000 0.406843 -1.418643 -0.982932
1 3.914465 9.000000 9.000000 -0.406843 1.418643 0.982932
ITEM: TIMESTEP
25
ITEM: NUMBER OF ATOMS
2
ITEM: BOX BOUNDS pp pp pp
0 10.000000
0 10.000000
0 10.000000
ITEM: ATOMS id x y z vx vy vz 
0 6.288957 1.000000 1.000000 0.406843 -1.418643 -0.982932
1 3.711043 9.000000 9.000000 -0.406843 1.418643 0.982932
ITEM: TIMESTEP
26
ITEM: NUMBER OF ATOMS
2
ITEM: BOX BOUNDS pp pp pp
0 10.000000
0 10.000000
0 10.000000
ITEM: ATOMS id x y z vx vy vz 
0 6.492378 1.000000 1.000000 0.406843 -1.418643 -0.982932
1 3.507622 9.000000 9.000000 -0.406843 1.418643 0.982932
ITEM: TIMESTEP
27
ITEM: NUMBER OF ATOMS
2
ITEM: BOX BOUNDS pp pp pp
0 10.000000
0 10.000000
0 10.000000
ITEM: ATOMS id x y z vx vy vz 
0 6.695800 1.000000 1.000000 0.406843 -1.418643 -0.982932
1 3.304200 9.000000 9.000000 -0.406843 1.418643 0.982932
ITEM: TIMESTEP
28
ITEM: NUMBER OF ATOMS
2
ITEM: BOX BOUNDS pp pp pp
0 10.000000
0 10.000000
0 10.000000
ITEM: ATOMS id x y z vx vy vz 
0 6.899221 1.000000 1.000000 0.406843 -1.418643 -0.982932
1 3.100779 9.000000 9.000000 -0.406843 1.418643 0.982932
ITEM: TIMESTEP
29
ITEM: NUMBER OF ATOMS
2
ITEM: BOX BOUNDS pp pp pp
0 10.000000
0 10.000000
0 10.000000
ITEM: ATOMS id x y z vx vy vz 
0 7.102643 1.000000 1.000000 0.406843 -1.418643 -0.982932
1 2.897357 9.000000 9.000000 -0.406843 1.418643 0.982932
ITEM: TIMESTEP
30
ITEM: NUMBER OF ATOMS
2
ITEM: BOX BOUNDS pp pp pp
0 10.000000
0 10.000000
0 10.000000
ITEM: ATOMS id x y z vx vy vz 
0 7.306064 1.000000 1.000000 0.406843 -1.418643 -0.982932
1 2.693936 9.000000 9.000000 -0.406843 1.418643 0.982932
ITEM: TIMESTEP
31
ITEM: NUMBER OF ATOMS
2
ITEM: BOX BOUNDS pp pp pp
0 10.000000
0 10.000000
0 10.000000
ITEM: ATOMS id x y z vx vy vz 
0 7.509485 1.000000 1.000000 0.406843 -1.418643 -0.982932
1 2.490515 9.000000 9.000000 -0.406843 1.418643 0.982932
ITEM: TIMESTEP
32
ITEM: NUMBER OF ATOMS
2
ITEM: BOX BOUNDS pp pp pp
0 10.000000
0 10.000000
0 10.000000
ITEM: ATOMS id x y z vx vy vz 
0 7.712907 1.000000 1.000000 0.406843 -1.418643 -0.982932
1 2.287093 9.000000 9.000000 -0.406843 1.418643 0.982932
ITEM: TIMESTEP
33
ITEM: NUMBER OF ATOMS
2
ITEM: BOX BOUNDS pp pp pp
0 10.000000
0 10.000000
0 10.000000
ITEM: ATOMS id x y z vx vy vz 
0 7.916328 1.000000 1.000000 0.406843 -1.418643 -0.982932
1 2.083672 9.000000 9.000000 -0.406843 1.418643 0.982932
ITEM: TIMESTEP
34
ITEM: NUMBER OF ATOMS
2
ITEM: BOX BOUNDS pp pp pp
0 10.000000
0 10.000000
0 10.000000
ITEM: ATOMS id x y z vx vy vz 
0 8.119750 1.000000 1.000000 0.406843 -1.418643 -0.982932
1 1.880250 9.000000 9.000000 -0.406843 1.418643 0.982932
ITEM: TIMESTEP
35
ITEM: NUMBER OF ATOMS
2
ITEM: BOX BOUNDS pp pp pp
0 10.000000
0 10.000000
0 10.000000
ITEM: ATOMS id x y z vx vy vz 
0 8.323171 1.000000 1.000000 0.406843 -1.418643 -0.982932
1 1.676829 9.000000 9.000000 -0.406843 1.418643 0.982932
ITEM: TIMESTEP
36
ITEM: NUMBER OF ATOMS
2
ITEM: BOX BOUNDS pp pp pp
0 10.000000
0 10.000000
0 10.000000
ITEM: ATOMS id x y z vx vy vz 
0 8.526593 1.000000 1.000000 0.406843 -1.418643 -0.982932
1 1.473407 9.000000 9.000000 -0.406843 1.418643 0.982932
ITEM: TIMESTEP
37
ITEM: NUMBER OF ATOMS
2
ITEM: BOX BOUNDS pp pp pp
0 10.000000
0 10.000000
0 10.000000
ITEM: ATOMS id x y z vx vy vz 
0 8.730014 1.000000 1.000000 0.406843 -1.418643 -0.982932
1 1.269986 9.000000 9.000000 -0.406843 1.418643 0.982932
ITEM: TIMESTEP
38
ITEM: NUMBER OF ATOMS
2
ITEM: BOX BOUNDS pp pp pp
0 10.000000
0 10.000000
0 10.000000
ITEM: ATOMS id x y z vx vy vz 
0 8.933435 1.000000 1.000000 0.406843 -1.418643 -0.982932
1 1.066565 9.000000 9.000000 -0.406843 1.418643 0.982932
ITEM: TIMESTEP
39
ITEM: NUMBER OF ATOMS
2
ITEM: BOX BOUNDS pp pp pp
0 10.000000
0 10.000000
0 10.000000
ITEM: ATOMS id x y z vx vy vz 
0 9.136857 1.000000 1.000000 0.406843 -1.418643 -0.982932
1 0.863143 9.000000 9.000000 -0.406843 1.418643 0.982932
ITEM: TIMESTEP
40
ITEM: NUMBER OF ATOMS
2
ITEM: BOX BOUNDS pp pp pp
0 10.000000
0 10.000000
0 10.000000
ITEM: ATOMS id x y z vx vy vz 
0 9.340278 1.000000 1.000000 0.406843 -1.418643 -0.982932
1 0.659722 9.000000 9.000000 -0.406843 1.418643 0.982932
ITEM: TIMESTEP
41
ITEM: NUMBER OF ATOMS
2
ITEM: BOX BOUNDS pp pp pp
0 10.000000
0 10.000000
0 10.000000
ITEM: ATOMS id x y z vx vy vz 
0 9.543700 1.000000 1.000000 0.406843 -1.418643 -0.982932
1 0.456300 9.000000 9.000000 -0.406843 1.418643 0.982932
ITEM: TIMESTEP
42
ITEM: NUMBER OF ATOMS
2
ITEM: BOX BOUNDS pp pp pp
0 10.000000
0 10.000000
0 10.000000
ITEM: ATOMS id x y z vx vy vz 
0 9.747121 1.000000 1.000000 0.406843 -1.418643 -0.982932
1 0.252879 9.000000 9.000000 -0.406843 1.418643 0.982932
ITEM: TIMESTEP
43
ITEM: NUMBER OF ATOMS
2
ITEM: BOX BOUNDS pp pp pp
0 10.000000
0 10.000000
0 10.000000
ITEM: ATOMS id x y z vx vy vz 
0 9.950542 1.000000 1.000000 0.406843 -1.418643 -0.982932
1 0.049458 9.000000 9.000000 -0.406843 1.418643 0.982932
ITEM: TIMESTEP
44
ITEM: NUMBER OF ATOMS
2
ITEM: BOX BOUNDS pp pp pp
0 10.000000
0 10.000000
0 10.000000
ITEM: ATOMS id x y z vx vy vz 
0 0.153964 1.000000 1.000000 0.406843 -1.418643 -0.982932
1 9.846036 9.000000 9.000000 -0.406843 1.418643 0.982932
ITEM: TIMESTEP
45
ITEM: NUMBER OF ATOMS
2
ITEM: BOX BOUNDS pp pp pp
0 10.000000
0 10.000000
0 10.000000
ITEM: ATOMS id x y z vx vy vz 
0 0.357385 1.000000 1.000000 0.406843 -1.418643 -0.982932
1 9.642615 9.000000 9.000000 -0.406843 1.418643 0.982932
ITEM: TIMESTEP
46
ITEM: NUMBER OF ATOMS
2
ITEM: BOX BOUNDS pp pp pp
0 10.000000
0 10.000000
0 10.000000
ITEM: ATOMS id x y z vx vy vz 
0 0.560807 1.000000 1.000000 0.406843 -1.418643 -0.982932
1 9.439193 9.000000 9.000000 -0.406843 1.418643 0.982932
ITEM: TIMESTEP
47
ITEM: NUMBER OF ATOMS
2
ITEM: BOX BOUNDS pp pp pp
0 10.000000
0 10.000000
0 10.000000
ITEM: ATOMS id x y z vx vy vz 
0 0.764228 1.000000 1.000000 0.406843 -1.418643 -0.982932
1 9.235772 9.000000 9.000000 -0.406843 1.418643 0.982932
ITEM: TIMESTEP
48
ITEM: NUMBER OF ATOMS
2
ITEM: BOX BOUNDS pp pp pp
0 10.000000
0 10.000000
0 10.000000
ITEM: ATOMS id x y z vx vy vz 
0 0.967650 1.000000 1.000000 0.406843 -1.418643 -0.982932
1 9.032350 9.000000 9.000000 -0.406843 1.418643 0.982932
ITEM: TIMESTEP
49
ITEM: NUMBER OF ATOMS
2
ITEM: BOX BOUNDS pp pp pp
0 10.000000
0 10.000000
0 10.000000
ITEM: ATOMS id x y z vx vy vz 
0 1.171071 1.000000 1.000000 0.406843 -1.418643 -0.982932
1 8.828929 9.000000 9.000000 -0.406843 1.418643 0.982932
ITEM: TIMESTEP
50
ITEM: NUMBER OF ATOMS
2
ITEM: BOX BOUNDS pp pp pp
0 10.000000
0 10.000000
0 10.000000
ITEM: ATOMS id x y z vx vy vz 
0 1.374492 1.000000 1.000000 0.406843 -1.418643 -0.982932
1 8.625508 9.000000 9.000000 -0.406843 1.418643 0.982932
ITEM: TIMESTEP
51
ITEM: NUMBER OF ATOMS
2
ITEM: BOX BOUNDS pp pp pp
0 10.000000
0 10.000000
0 10.000000
ITEM: ATOMS id x y z vx vy vz 
0 1.577914 1.000000 1.000000 0.406843 -1.418643 -0.982932
1 8.422086 9.000000 9.000000 -0.406843 1.418643 0.982932
ITEM: TIMESTEP
52
ITEM: NUMBER OF ATOMS
2
ITEM: BOX BOUNDS pp pp pp
0 10.000000
0 10.000000
0 10.000000
ITEM: ATOMS id x y z vx vy vz 
0 1.781335 1.000000 1.000000 0.406843 -1.418643 -0.982932
1 8.218665 9.000000 9.000000 -0.406843 1.418643 0.982932
ITEM: TIMESTEP
53
ITEM: NUMBER OF ATOMS
2
ITEM: BOX BOUNDS pp pp pp
0 10.000000
0 10.000000
0 10.000000
ITEM: ATOMS id x y z vx vy vz 
0 1.984757 1.000000 1.000000 0.406843 -1.418643 -0.982932
1 8.015243 9.000000 9.000000 -0.406843 1.418643 0.982932
ITEM: TIMESTEP
54
ITEM: NUMBER OF ATOMS
2
ITEM: BOX BOUNDS pp pp pp
0 10.000000
0 10.000000
0 10.000000
ITEM: ATOMS id x y z vx vy vz 
0 2.188178 1.000000 1.000000 0.406843 -1.418643 -0.982932
1 7.811822 9.000000 9.000000 -0.406843 1.418643 0.982932
ITEM: TIMESTEP
55
ITEM: NUMBER OF ATOMS
2
ITEM: BOX BOUNDS pp pp pp
0 10.000000
0 10.000000
0 10.000000
ITEM: ATOMS id x y z vx vy vz 
0 2.391600 1.000000 1.000000 0.406843 -1.418643 -0.982932
1 7.608400 9.000000 9.000000 -0.406843 1.418643 0.982932
ITEM: TIMESTEP
56
ITEM: NUMBER OF ATOMS
2
ITEM: BOX BOUNDS pp pp pp
0 10.000000
0 10.000000
0 10.000000
ITEM: ATOMS id x y z vx vy vz 
0 2.595021 1.000000 1.000000 0.406843 -1.418643 -0.982932
1 7.404979 9.000000 9.000000 -0.406843 1.418643 0.982932
ITEM: TIMESTEP
57
ITEM: NUMBER OF ATOMS
2
ITEM: BOX BOUNDS pp pp pp
0 10.000000
0 10.000000
0 10.000000
ITEM: ATOMS id x y z vx vy vz 
0 2.798442 1.000000 1.000000 0.406843 -1.418643 -0.982932
1 7.201558 9.000000 9.000000 -0.406843 1.418643 0.982932
ITEM: TIMESTEP
58
ITEM: NUMBER OF ATOMS
2
ITEM: BOX BOUNDS pp pp pp
0 10.000000
0 10.000000
0 10.000000
ITEM: ATOMS id x y z vx vy vz 
0 3.001864 1.000000 1.000000 0.406843 -1.418643 -0.982932
1 6.998136 9.000000 9.000000 -0.406843 1.418643 0.982932
ITEM: TIMESTEP
59
ITEM: NUMBER OF ATOMS
2
ITEM: BOX BOUNDS pp pp pp
0 10.000000
0 10.000000
0 10.000000
ITEM: ATOMS id x y z vx vy vz 
0 3.205285 1.000000 1.000000 0.406843 -1.418643 -0.982932
1 6.794715 9.000000 9.000000 -0.406843 1.418643 0.982932
ITEM: TIMESTEP
60
ITEM: NUMBER OF ATOMS
2
ITEM: BOX BOUNDS pp pp pp
0 10.000000
0 10.000000
0 10.000000
ITEM: ATOMS id x y z vx vy vz 
0 3.408707 1.000000 1.000000 0.406843 -1.418643 -0.982932
1 6.591293 9.000000 9.000000 -0.406843 1.418643 0.982932
ITEM: TIMESTEP
61
ITEM: NUMBER OF ATOMS
2
ITEM: BOX BOUNDS pp pp pp
0 10.000000
0 10.000000
0 10.000000
ITEM: ATOMS id x y z vx vy vz 
0 3.612128 1.000000 1.000000 0.406843 -1.418643 -0.982932
1 6.387872 9.000000 9.000000 -0.406843 1.418643 0.982932
ITEM: TIMESTEP
62
ITEM: NUMBER OF ATOMS
2
ITEM: BOX BOUNDS pp pp pp
0 10.000000
0 10.000000
0 10.000000
ITEM: ATOMS id x y z vx vy vz 
0 3.815549 1.000000 1.000000 0.406843 -1.418643 -0.982932
1 6.184451 9.000000 9.000000 -0.406843 1.418643 0.982932
ITEM: TIMESTEP
63
ITEM: NUMBER OF ATOMS
2
ITEM: BOX BOUNDS pp pp pp
0 10.000000
0 10.000000
0 10.000000
ITEM: ATOMS id x y z vx vy vz 
0 4.018971 1.000000 1.000000 0.406843 -1.418643 -0.982932
1 5.981029 9.000000 9.000000 -0.406843 1.418643 0.982932
ITEM: TIMESTEP
64
ITEM: NUMBER OF ATOMS
2
ITEM: BOX BOUNDS pp pp pp
0 10.000000
0 10.000000
0 10.000000
ITEM: ATOMS id x y z vx vy vz 
0 4.222392 1.000000 1.000000 0.406843 -1.418643 -0.982932
1 5.777608 9.000000 9.000000 -0.406843 1.418643 0.982932
ITEM: TIMESTEP
65
ITEM: NUMBER OF ATOMS
2
ITEM: BOX BOUNDS pp pp pp
0 10.000000
0 10.000000
0 10.000000
ITEM: ATOMS id x y z vx vy vz 
0 4.425814 1.000000 1.000000 0.406843 -1.418643 -0.982932
1 5.574186 9.000000 9.000000 -0.406843 1.418643 0.982932
ITEM: TIMESTEP
66
ITEM: NUMBER OF ATOMS
2
ITEM: BOX BOUNDS pp pp pp
0 10.000000
0 10.000000
0 10.000000
ITEM: ATOMS id x y z vx vy vz 
0 4.629235 1.000000 1.000000 0.406843 -1.418643 -0.982932
1 5.370765 9.000000 9.000000 -0.406843 1.418643 0.982932
ITEM: TIMESTEP
67
ITEM: NUMBER OF ATOMS
2
ITEM: BOX BOUNDS pp pp pp
0 10.000000
0 10.000000
0 10.000000
ITEM: ATOMS id x y z vx vy vz 
0 4.832657 1.000000 1.000000 0.406843 -1.418643 -0.982932
1 5.167343 9.000000 9.000000 -0.406843 1.418643 0.982932
ITEM: TIMESTEP
68
ITEM: NUMBER OF ATOMS
2
ITEM: BOX BOUNDS pp pp pp
0 10.000000
0 10.000000
0 10.000000
ITEM: ATOMS id x y z vx vy vz 
0 5.036078 1.000000 1.000000 0.406843 -1.418643 -0.982932
1 4.963922 9.000000 9.000000 -0.406843 1.418643 0.982932
ITEM: TIMESTEP
69
ITEM: NUMBER OF ATOMS
2
ITEM: BOX BOUNDS pp pp pp
0 10.000000
0 10.000000
0 10.000000
ITEM: ATOMS id x y z vx vy vz 
0 5.239499 1.000000 1.000000 0.406843 -1.418643 -0.982932
1 4.760501 9.000000 9.000000 -0.406843 1.418643 0.982932
ITEM: TIMESTEP
70
ITEM: NUMBER OF ATOMS
2
ITEM: BOX BOUNDS pp pp pp
0 10.000000
0 10.000000
0 10.000000
ITEM: ATOMS id x y z vx vy vz 
0 5.442921 1.000000 1.000000 0.406843 -1.418643 -0.982932
1 4.557079 9.000000 9.000000 -0.406843 1.418643 0.982932
ITEM: TIMESTEP
71
ITEM: NUMBER OF ATOMS
2
ITEM: BOX BOUNDS pp pp pp
0 10.000000
0 10.000000
0 10.000000
ITEM: ATOMS id x y z vx vy vz 
0 5.646342 1.000000 1.000000 0.406843 -1.418643 -0.982932
1 4.353658 9.000000 9.000000 -0.406843 1.418643 0.982932
ITEM: TIMESTEP
72
ITEM: NUMBER OF ATOMS
2
ITEM: BOX BOUNDS pp pp pp
0 10.000000
0 10.000000
0 10.000000
ITEM: ATOMS id x y z vx vy vz 
0 5.849764 1.000000 1.000000 0.406843 -1.418643 -0.982932
1 4.150236 9.000000 9.000000 -0.406843 1.418643 0.982932
ITEM: TIMESTEP
73
ITEM: NUMBER OF ATOMS
2
ITEM: BOX BOUNDS pp pp pp
0 10.000000
0 10.000000
0 10.000000
ITEM: ATOMS id x y z vx vy vz 
0 6.053185 1.000000 1.000000 0.406843 -1.418643 -0.982932
1 3.946815 9.000000 9.000000 -0.406843 1.418643 0.982932
ITEM: TIMESTEP
74
ITEM: NUMBER OF ATOMS
2
ITEM: BOX BOUNDS pp pp pp
0 10.000000
0 10.000000
0 10.000000
ITEM: ATOMS id x y z vx vy vz 
0 6.256606 1.000000 1.000000 0.406843 -1.418643 -0.982932
1 3.743394 9.000000 9.000000 -0.406843 1.418643 0.982932
ITEM: TIMESTEP
75
ITEM: NUMBER OF ATOMS
2
ITEM: BOX BOUNDS pp pp pp
0 10.000000
0 10.000000
0 10.000000
ITEM: ATOMS id x y z vx vy vz 
0 6.460028 1.000000 1.000000 0.406843 -1.418643 -0.982932
1 3.539972 9.000000 9.000000 -0.406843 1.418643 0.982932
ITEM: TIMESTEP
76
ITEM: NUMBER OF ATOMS
2
ITEM: BOX BOUNDS pp pp pp
0 10.000000
0 10.000000
0 10.000000
ITEM: ATOMS id x y z vx vy vz 
0 6.663449 1.000000 1.000000 0.406843 -1.418643 -0.982932
1 3.336551 9.000000 9.000000 -0.406843 1.418643 0.982932
ITEM: TIMESTEP
77
ITEM: NUMBER OF ATOMS
2
ITEM: BOX BOUNDS pp pp pp
0 10.000000
0 10.000000
0 10.000000
ITEM: ATOMS id x y z vx vy vz 
0 6.866871 1.000000 1.000000 0.406843 -1.418643 -0.982932
1 3.133129 9.000000 9.000000 -0.406843 1.418643 0.982932
ITEM: TIMESTEP
78
ITEM: NUMBER OF ATOMS
2
ITEM: BOX BOUNDS pp pp pp
0 10.000000
0 10.000000
0 10.000000
ITEM: ATOMS id x y z vx vy vz 
0 7.070292 1.000000 1.000000 0.406843 -1.418643 -0.982932
1 2.929708 9.000000 9.000000 -0.406843 1.418643 0.982932
ITEM: TIMESTEP
79
ITEM: NUMBER OF ATOMS
2
ITEM: BOX BOUNDS pp pp pp
0 10.000000
0 10.000000
0 10.000000
ITEM: ATOMS id x y z vx vy vz 
0 7.273714 1.000000 1.000000 0.406843 -1.418643 -0.982932
1 2.726286 9.000000 9.000000 -0.406843 1.418643 0.982932
ITEM: TIMESTEP
80
ITEM: NUMBER OF ATOMS
2
ITEM: BOX BOUNDS pp pp pp
0 10.000000
0 10.000000
0 10.000000
ITEM: ATOMS id x y z vx vy vz 
0 7.477135 1.000000 1.000000 0.406843 -1.418643 -0.982932
1 2.522865 9.000000 9.000000 -0.406843 1.418643 0.982932
ITEM: TIMESTEP
81
ITEM: NUMBER OF ATOMS
2
ITEM: BOX BOUNDS pp pp pp
0 10.000000
0 10.000000
0 10.000000
ITEM: ATOMS id x y z vx vy vz 
0 7.680556 1.000000 1.000000 0.406843 -1.418643 -0.982932
1 2.319444 9.000000 9.000000 -0.406843 1.418643 0.982932
ITEM: TIMESTEP
82
ITEM: NUMBER OF ATOMS
2
ITEM: BOX BOUNDS pp pp pp
0 10.000000
0 10.000000
0 10.000000
ITEM: ATOMS id x y z vx vy vz 
0 7.883978 1.000000 1.000000 0.406843 -1.418643 -0.982932
1 2.116022 9.000000 9.000000 -0.406843 1.418643 0.982932
ITEM: TIMESTEP
83
ITEM: NUMBER OF ATOMS
2
ITEM: BOX BOUNDS pp pp pp
0 10.000000
0 10.000000
0 10.000000
ITEM: ATOMS id x y z vx vy vz 
0 8.087399 1.000000 1.000000 0.406843 -1.418643 -0.982932
1 1.912601 9.000000 9.000000 -0.406843 1.418643 0.982932
ITEM: TIMESTEP
84
ITEM: NUMBER OF ATOMS
2
ITEM: BOX BOUNDS pp pp pp
0 10.000000
0 10.000000
0 10.000000
ITEM: ATOMS id x y z vx vy vz 
0 8.290821 1.000000 1.000000 0.406843 -1.418643 -0.982932
1 1.709179 9.000000 9.000000 -0.406843 1.418643 0.982932
ITEM: TIMESTEP
85
ITEM: NUMBER OF ATOMS
2
ITEM: BOX BOUNDS pp pp pp
0 10.000000
0 10.000000
0 10.000000
ITEM: ATOMS id x y z vx vy vz 
0 8.494242 1.000000 1.000000 0.406843 -1.418643 -0.982932
1 1.505758 9.000000 9.000000 -0.406843 1.418643 0.982932
ITEM: TIMESTEP
86
ITEM: NUMBER OF ATOMS
2
ITEM: BOX BOUNDS pp pp pp
0 10.000000
0 10.000000
0 10.000000
ITEM: ATOMS id x y z vx vy vz 
0 8.697664 1.000000 1.000000 0.406843 -1.418643 -0.982932
1 1.302336 9.000000 9.000000 -0.406843 1.418643 0.982932
ITEM: TIMESTEP
87
ITEM: NUMBER OF ATOMS
2
ITEM: BOX BOUNDS pp pp pp
0 10.000000
0 10.000000
0 10.000000
ITEM: ATOMS id x y z vx vy vz 
0 8.901085 1.000000 1.000000 0.406843 -1.418643 -0.982932
1 1.098915 9.000000 9.000000 -0.406843 1.418643 0.982932
ITEM: TIMESTEP
88
ITEM: NUMBER OF ATOMS
2
ITEM: BOX BOUNDS pp pp pp
0 10.000000
0 10.000000
0 10.000000
ITEM: ATOMS id x y z vx vy vz 
0 9.104506 1.000000 1.000000 0.406843 -1.418643 -0.982932
1 0.895494 9.000000 9.000000 -0.406843 1.418643 0.982932
ITEM: TIMESTEP
89
ITEM: NUMBER OF ATOMS
2
ITEM: BOX BOUNDS pp pp pp
0 10.000000
0 10.000000
0 10.000000
ITEM: ATOMS id x y z vx vy vz 
0 9.307928 1.000000 1.000000 0.406843 -1.418643 -0.982932
1 0.692072 9.000000 9.000000 -0.406843 1.418643 0.982932
ITEM: TIMESTEP
90
ITEM: NUMBER OF ATOMS
2
ITEM: BOX BOUNDS pp pp pp
0 10.000000
0 10.000000
0 10.000000
ITEM: ATOMS id x y z vx vy vz 
0 9.511349 1.000000 1.000000 0.406843 -1.418643 -0.982932
1 0.488651 9.000000 9.000000 -0.406843 1.418643 0.982932
ITEM: TIMESTEP
91
ITEM: NUMBER OF ATOMS
2
ITEM: BOX BOUNDS pp pp pp
0 10.000000
0 10.000000
0 10.000000
ITEM: ATOMS id x y z vx vy vz 
0 9.714771 1.000000 1.000000 0.406843 -1.418643 -0.982932
1 0.285229 9.000000 9.000000 -0.406843 1.418643 0.982932
ITEM: TIMESTEP
92
ITEM: NUMBER OF ATOMS
2
ITEM: BOX BOUNDS pp pp pp
0 10.000000
0 10.000000
0 10.000000
ITEM: ATOMS id x y z vx vy vz 
0 9.918192 1.000000 1.000000 0.406843 -1.418643 -0.982932
1 0.081808 9.000000 9.000000 -0.406843 1.418643 0.982932
ITEM: TIMESTEP
93
ITEM: NUMBER OF ATOMS
2
ITEM: BOX BOUNDS pp pp pp
0 10.000000
0 10.000000
0 10.000000
ITEM: ATOMS id x y z vx vy vz 
0 0.121613 1.000000 1.000000 0.406843 -1.418643 -0.982932
1 9.878387 9.000000 9.000000 -0.406843 1.418643 0.982932
ITEM: TIMESTEP
94
ITEM: NUMBER OF ATOMS
2
ITEM: BOX BOUNDS pp pp pp
0 10.000000
0 10.000000
0 10.000000
ITEM: ATOMS id x y z vx vy vz 
0 0.325035 1.000000 1.000000 0.406843 -1.418643 -0.982932
1 9.674965 9.000000 9.000000 -0.406843 1.418643 0.982932
ITEM: TIMESTEP
95
ITEM: NUMBER OF ATOMS
2
ITEM: BOX BOUNDS pp pp pp
0 10.000000
0 10.000000
0 10.000000
ITEM: ATOMS id x y z vx vy vz 
0 0.528456 1.000000 1.000000 0.406843 -1.418643 -0.982932
1 9.471544 9.000000 9.000000 -0.406843 1.418643 0.982932
ITEM: TIMESTEP
96
ITEM: NUMBER OF ATOMS
2
ITEM: BOX BOUNDS pp pp pp
0 10.000000
0 10.000000
0 10.000000
ITEM: ATOMS id x y z vx vy vz 
0 0.731878 1.000000 1.000000 0.406843 -1.418643 -0.982932
1 9.268122 9.000000 9.000000 -0.406843 1.418643 0.982932
ITEM: TIMESTEP
97
ITEM: NUMBER OF ATOMS
2
ITEM: BOX BOUNDS pp pp pp
0 10.000000
0 10.000000
0 10.000000
ITEM: ATOMS id x y z vx vy vz 
0 0.935299 1.000000 1.000000 0.406843 -1.418643 -0.982932
1 9.064701 9.000000 9.000000 -0.406843 1.418643 0.982932
ITEM: TIMESTEP
98
ITEM: NUMBER OF ATOMS
2
ITEM: BOX BOUNDS pp pp pp
0 10.000000
0 10.000000
0 10.000000
ITEM: ATOMS id x y z vx vy vz 
0 1.138721 1.000000 1.000000 0.406843 -1.418643 -0.982932
1 8.861279 9.000000 9.000000 -0.406843 1.418643 0.982932
ITEM: TIMESTEP
99
ITEM: NUMBER OF ATOMS
2
ITEM: BOX BOUNDS pp pp pp
0 10.000000
0 10.000000
0 10.000000
ITEM: ATOMS id x y z vx vy vz 
0 1.342142 1.000000 1.000000 0.406843 -1.418643 -0.982932
1 8.657858 9.000000 9.000000 -0.406843 1.418643 0.982932
ITEM: TIMESTEP
100
ITEM: NUMBER OF ATOMS
2
ITEM: BOX BOUNDS pp pp pp
0 10.000000
0 10.000000
0 10.000000
ITEM: ATOMS id x y z vx vy vz 
0 1.342142 1.000000 1.000000 0.406843 -1.418643 -0.982932
1 8.657858 9.000000 9.000000 -0.406843 1.418643 0.982932
ITEM: TIMESTEP
101
ITEM: NUMBER OF ATOMS
2
ITEM: BOX BOUNDS pp pp pp
0 10.000000
0 10.000000
0 10.000000
ITEM: ATOMS id x y z vx vy vz 
0 1.138721 1.000000 1.000000 0.406843 -1.418643 -0.982932
1 8.861279 9.000000 9.000000 -0.406843 1.418643 0.982932
ITEM: TIMESTEP
102
ITEM: NUMBER OF ATOMS
2
ITEM: BOX BOUNDS pp pp pp
0 10.000000
0 10.000000
0 10.000000
ITEM: ATOMS id x y z vx vy vz 
0 0.935299 1.000000 1.000000 0.406843 -1.418643 -0.982932
1 9.064701 9.000000 9.000000 -0.406843 1.418643 0.982932
ITEM: TIMESTEP
103
ITEM: NUMBER OF ATOMS
2
ITEM: BOX BOUNDS pp pp pp
0 10.000000
0 10.000000
0 10.000000
ITEM: ATOMS id x y z vx vy vz 
0 0.731878 1.000000 1.000000 0.406843 -1.418643 -0.982932
1 9.268122 9.000000 9.000000 -0.406843 1.418643 0.982932
ITEM: TIMESTEP
104
ITEM: NUMBER OF ATOMS
2
ITEM: BOX BOUNDS pp pp pp
0 10.000000
0 10.000000
0 10.000000
ITEM: ATOMS id x y z vx vy vz 
0 0.528456 1.000000 1.000000 0.406843 -1.418643 -0.982932
1 9.471544 9.000000 9.000000 -0.406843 1.418643 0.982932
ITEM: TIMESTEP
105
ITEM: NUMBER OF ATOMS
2
ITEM: BOX BOUNDS pp pp pp
0 10.000000
0 10.000000
0 10.000000
ITEM: ATOMS id x y z vx vy vz 
0 0.325035 1.000000 1.000000 0.406843 -1.418643 -0.982932
1 9.674965 9.000000 9.000000 -0.406843 1.418643 0.982932
ITEM: TIMESTEP
106
ITEM: NUMBER OF ATOMS
2
ITEM: BOX BOUNDS pp pp pp
0 10.000000
0 10.000000
0 10.000000
ITEM: ATOMS id x y z vx vy vz 
0 0.121613 1.000000 1.000000 0.406843 -1.418643 -0.982932
1 9.878387 9.000000 9.000000 -0.406843 1.418643 0.982932
ITEM: TIMESTEP
107
ITEM: NUMBER OF ATOMS
2
ITEM: BOX BOUNDS pp pp pp
0 10.000000
0 10.000000
0 10.000000
ITEM: ATOMS id x y z vx vy vz 
0 9.918192 1.000000 1.000000 0.406843 -1.418643 -0.982932
1 0.081808 9.000000 9.000000 -0.406843 1.418643 0.982932
ITEM: TIMESTEP
108
ITEM: NUMBER OF ATOMS
2
ITEM: BOX BOUNDS pp pp pp
0 10.000000
0 10.000000
0 10.000000
ITEM: ATOMS id x y z vx vy vz 
0 9.714771 1.000000 1.000000 0.406843 -1.418643 -0.982932
1 0.285229 9.000000 9.000000 -0.406843 1.418643 0.982932
ITEM: TIMESTEP
109
ITEM: NUMBER OF ATOMS
2
ITEM: BOX BOUNDS pp pp pp
0 10.000000
0 10.000000
0 10.000000
ITEM: ATOMS id x y z vx vy vz 
0 9.511349 1.000000 1.000000 0.406843 -1.418643 -0.982932
1 0.488651 9.000000 9.000000 -0.406843 1.418643 0.982932
ITEM: TIMESTEP
110
ITEM: NUMBER OF ATOMS
2
ITEM: BOX BOUNDS pp pp pp
0 10.000000
0 10.000000
0 10.000000
ITEM: ATOMS id x y z vx vy vz 
0 9.307928 1.000000 1.000000 0.406843 -1.418643 -0.982932
1 0.692072 9.000000 9.000000 -0.406843 1.418643 0.982932
ITEM: TIMESTEP
111
ITEM: NUMBER OF ATOMS
2
ITEM: BOX BOUNDS pp pp pp
0 10.000000
0 10.000000
0 10.000000
ITEM: ATOMS id x y z vx vy vz 
0 9.104506 1.000000 1.000000 0.406843 -1.418643 -0.982932
1 0.895494 9.000000 9.000000 -0.406843 1.418643 0.982932
ITEM: TIMESTEP
112
ITEM: NUMBER OF ATOMS
2
ITEM: BOX BOUNDS pp pp pp
0 10.000000
0 10.000000
0 10.000000
ITEM: ATOMS id x y z vx vy vz 
0 8.901085 1.000000 1.000000 0.406843 -1.418643 -0.982932
1 1.098915 9.000000 9.000000 -0.406843 1.418643 0.982932
ITEM: TIMESTEP
113
ITEM: NUMBER OF ATOMS
2
ITEM: BOX BOUNDS pp pp pp
0 10.000000
0 10.000000
0 10.000000
ITEM: ATOMS id x y z vx vy vz 
0 8.697664 1.000000 1.000000 0.406843 -1.418643 -0.982932
1 1.302336 9.000000 9.000000 -0.406843 1.418643 0.982932
ITEM: TIMESTEP
114
ITEM: NUMBER OF ATOMS
2
ITEM: BOX BOUNDS pp pp pp
0 10.000000
0 10.000000
0 10.000000
ITEM: ATOMS id x y z vx vy vz 
0 8.494242 1.000000 1.000000 0.406843 -1.418643 -0.982932
1 1.505758 9.000000 9.000000 -0.406843 1.418643 0.982932
ITEM: TIMESTEP
115
ITEM: NUMBER OF ATOMS
2
ITEM: BOX BOUNDS pp pp pp
0 10.000000
0 10.000000
0 10.000000
ITEM: ATOMS id x y z vx vy vz 
0 8.290821 1.000000 1.000000 0.406843 -1.418643 -0.982932
1 1.709179 9.000000 9.000000 -0.406843 1.418643 0.982932
ITEM: TIMESTEP
116
ITEM: NUMBER OF ATOMS
2
ITEM: BOX BOUNDS pp pp pp
0 10.000000
0 10.000000
0 10.000000
ITEM: ATOMS id x y z vx vy vz 
0 8.087399 1.000000 1.000000 0.406843 -1.418643 -0.982932
1 1.912601 9.000000 9.000000 -0.406843 1.418643 0.982932
ITEM: TIMESTEP
117
ITEM: NUMBER OF ATOMS
2
ITEM: BOX BOUNDS pp pp pp
0 10.000000
0 10.000000
0 10.000000
ITEM: ATOMS id x y z vx vy vz 
0 7.883978 1.000000 1.000000 0.406843 -1.418643 -0.982932
1 2.116022 9.000000 9.000000 -0.406843 1.418643 0.982932
ITEM: TIMESTEP
118
ITEM: NUMBER OF ATOMS
2
ITEM: BOX BOUNDS pp pp pp
0 10.000000
0 10.000000
0 10.000000
ITEM: ATOMS id x y z vx vy vz 
0 7.680556 1.000000 1.000000 0.406843 -1.418643 -0.982932
1 2.319444 9.000000 9.000000 -0.406843 1.418643 0.982932
ITEM: TIMESTEP
119
ITEM: NUMBER OF ATOMS
2
ITEM: BOX BOUNDS pp pp pp
0 10.000000
0 10.000000
0 10.000000
ITEM: ATOMS id x y z vx vy vz 
0 7.477135 1.000000 1.000000 0.406843 -1.418643 -0.982932