ITEM: TIMESTEP
0
ITEM: NUMBER OF ATOMS
2
ITEM: BOX BOUNDS pp pp pp
0 10.000000
0 10.000000
0 10.000000
ITEM: ATOMS id x y z vx vy vz 
0 5.203421 5.000000 5.000000 0.406843 -1.418643 -0.982932
1 9.796579 0.000000 0.000000 -0.406843 1.418643 0.982932
ITEM: TIMESTEP
1
ITEM: NUMBER OF ATOMS
2
ITEM: BOX BOUNDS pp pp pp
0 10.000000
0 10.000000
0 10.000000
ITEM: ATOMS id x y z vx vy vz 
0 5.406843 5.000000 5.000000 0.406843 -1.418643 -0.982932
1 9.593157 0.000000 0.000000 -0.406843 1.418643 0.982932
ITEM: TIMESTEP
2
ITEM: NUMBER OF ATOMS
2
ITEM: BOX BOUNDS pp pp pp
0 10.000000
0 10.000000
0 10.000000
ITEM: ATOMS id x y z vx vy vz 
0 5.610264 5.000000 5.000000 0.406843 -1.418643 -0.982932
1 9.389736 0.000000 0.000000 -0.406843 1.418643 0.982932
ITEM: TIMESTEP
3
ITEM: NUMBER OF ATOMS
2
ITEM: BOX BOUNDS pp pp pp
0 10.000000
0 10.000000
0 10.000000
ITEM: ATOMS id x y z vx vy vz 
0 5.813686 5.000000 5.000000 0.406843 -1.418643 -0.982932
1 9.186314 0.000000 0.000000 -0.406843 1.418643 0.982932
ITEM: TIMESTEP
4
ITEM: NUMBER OF ATOMS
2
ITEM: BOX BOUNDS pp pp pp
0 10.000000
0 10.000000
0 10.000000
ITEM: ATOMS id x y z vx vy vz 
0 6.017107 5.000000 5.000000 0.406843 -1.418643 -0.982932
1 8.982893 0.000000 0.000000 -0.406843 1.418643 0.982932
ITEM: TIMESTEP
5
ITEM: NUMBER OF ATOMS
2
ITEM: BOX BOUNDS pp pp pp
0 10.000000
0 10.000000
0 10.000000
ITEM: ATOMS id x y z vx vy vz 
0 6.220529 5.000000 5.000000 0.406843 -1.418643 -0.982932
1 8.779471 0.000000 0.000000 -0.406843 1.418643 0.982932
ITEM: TIMESTEP
6
ITEM: NUMBER OF ATOMS
2
ITEM: BOX BOUNDS pp pp pp
0 10.000000
0 10.000000
0 10.000000
ITEM: ATOMS id x y z vx vy vz 
0 6.423950 5.000000 5.000000 0.406843 -1.418643 -0.982932
1 8.576050 0.000000 0.000000 -0.406843 1.418643 0.982932
ITEM: TIMESTEP
7
ITEM: NUMBER OF ATOMS
2
ITEM: BOX BOUNDS pp pp pp
0 10.000000
0 10.000000
0 10.000000
ITEM: ATOMS id x y z vx vy vz 
0 6.627371 5.000000 5.000000 0.406843 -1.418643 -0.982932
1 8.372629 0.000000 0.000000 -0.406843 1.418643 0.982932
ITEM: TIMESTEP
8
ITEM: NUMBER OF ATOMS
2
ITEM: BOX BOUNDS pp pp pp
0 10.000000
0 10.000000
0 10.000000
ITEM: ATOMS id x y z vx vy vz 
0 6.830793 5.000000 5.000000 0.406843 -1.418643 -0.982932
1 8.169207 0.000000 0.000000 -0.406843 1.418643 0.982932
ITEM: TIMESTEP
9
ITEM: NUMBER OF ATOMS
2
ITEM: BOX BOUNDS pp pp pp
0 10.000000
0 10.000000
0 10.000000
ITEM: ATOMS id x y z vx vy vz 
0 7.034214 5.000000 5.000000 0.406843 -1.418643 -0.982932
1 7.965786 0.000000 0.000000 -0.406843 1.418643 0.982932
ITEM: TIMESTEP
10
ITEM: NUMBER OF ATOMS
2
ITEM: BOX BOUNDS pp pp pp
0 10.000000
0 10.000000
0 10.000000
ITEM: ATOMS id x y z vx vy vz 
0 7.237636 5.000000 5.000000 0.406843 -1.418643 -0.982932
1 7.762364 0.000000 0.000000 -0.406843 1.418643 0.982932
ITEM: TIMESTEP
11
ITEM: NUMBER OF ATOMS
2
ITEM: BOX BOUNDS pp pp pp
0 10.000000
0 10.000000
0 10.000000
ITEM: ATOMS id x y z vx vy vz 
0 7.441057 5.000000 5.000000 0.406843 -1.418643 -0.982932
1 7.558943 0.000000 0.000000 -0.406843 1.418643 0.982932
ITEM: TIMESTEP
12
ITEM: NUMBER OF ATOMS
2
ITEM: BOX BOUNDS pp pp pp
0 10.000000
0 10.000000
0 10.000000
ITEM: ATOMS id x y z vx vy vz 
0 7.644478 5.000000 5.000000 0.406843 -1.418643 -0.982932
1 7.355522 0.000000 0.000000 -0.406843 1.418643 0.982932
ITEM: TIMESTEP
13
ITEM: NUMBER OF ATOMS
2
ITEM: BOX BOUNDS pp pp pp
0 10.000000
0 10.000000
0 10.000000
ITEM: ATOMS id x y z vx vy vz 
0 7.847900 5.000000 5.000000 0.406843 -1.418643 -0.982932
1 7.152100 0.000000 0.000000 -0.406843 1.418643 0.982932
ITEM: TIMESTEP
14
ITEM: NUMBER OF ATOMS
2
ITEM: BOX BOUNDS pp pp pp
0 10.000000
0 10.000000
0 10.000000
ITEM: ATOMS id x y z vx vy vz 
0 8.051321 5.000000 5.000000 0.406843 -1.418643 -0.982932
1 6.948679 0.000000 0.000000 -0.406843 1.418643 0.982932
ITEM: TIMESTEP
15
ITEM: NUMBER OF ATOMS
2
ITEM: BOX BOUNDS pp pp pp
0 10.000000
0 10.000000
0 10.000000
ITEM: ATOMS id x y z vx vy vz 
0 8.254743 5.000000 5.000000 0.406843 -1.418643 -0.982932
1 6.745257 0.000000 0.000000 -0.406843 1.418643 0.982932
ITEM: TIMESTEP
16
ITEM: NUMBER OF ATOMS
2
ITEM: BOX BOUNDS pp pp pp
0 10.000000
0 10.000000
0 10.000000
ITEM: ATOMS id x y z vx vy vz 
0 8.458164 5.000000 5.000000 0.406843 -1.418643 -0.982932
1 6.541836 0.000000 0.000000 -0.406843 1.418643 0.982932
ITEM: TIMESTEP
17
ITEM: NUMBER OF ATOMS
2
ITEM: BOX BOUNDS pp pp pp
0 10.000000
0 10.000000
0 10.000000
ITEM: ATOMS id x y z vx vy vz 
0 8.661586 5.000000 5.000000 0.406843 -1.418643 -0.982932
1 6.338414 0.000000 0.000000 -0.406843 1.418643 0.982932
ITEM: TIMESTEP
18
ITEM: NUMBER OF ATOMS
2
ITEM: BOX BOUNDS pp pp pp
0 10.000000
0 10.000000
0 10.000000
ITEM: ATOMS id x y z vx vy vz 
0 8.865007 5.000000 5.000000 0.406843 -1.418643 -0.982932
1 6.134993 0.000000 0.000000 -0.406843 1.418643 0.982932
ITEM: TIMESTEP
19
ITEM: NUMBER OF ATOMS
2
ITEM: BOX BOUNDS pp pp pp
0 10.000000
0 10.000000
0 10.000000
ITEM: ATOMS id x y z vx vy vz 
0 9.068428 5.000000 5.000000 0.406843 -1.418643 -0.982932
1 5.931572 0.000000 0.000000 -0.406843 1.418643 0.982932
ITEM: TIMESTEP
20
ITEM: NUMBER OF ATOMS
2
ITEM: BOX BOUNDS pp pp pp
0 10.000000
0 10.000000
0 10.000000
ITEM: ATOMS id x y z vx vy vz 
0 9.271850 5.000000 5.000000 0.406843 -1.418643 -0.982932
1 5.728150 0.000000 0.000000 -0.406843 1.418643 0.982932
ITEM: TIMESTEP
21
ITEM: NUMBER OF ATOMS
2
ITEM: BOX BOUNDS pp pp pp
0 10.000000
0 10.000000
0 10.000000
ITEM: ATOMS id x y z vx vy vz 
0 9.475271 5.000000 5.000000 0.406843 -1.418643 -0.982932
1 5.524729 0.000000 0.000000 -0.406843 1.418643 0.982932
ITEM: TIMESTEP
22
ITEM: NUMBER OF ATOMS
2
ITEM: BOX BOUNDS pp pp pp
0 10.000000
0 10.000000
0 10.000000
ITEM: ATOMS id x y z vx vy vz 
0 9.678693 5.000000 5.000000 0.406843 -1.418643 -0.982932
1 5.321307 0.000000 0.000000 -0.406843 1.418643 0.982932
ITEM: TIMESTEP
23
ITEM: NUMBER OF ATOMS
2
ITEM: BOX BOUNDS pp pp pp
0 10.000000
0 10.000000
0 10.000000
ITEM: ATOMS id x y z vx vy vz 
0 9.882114 5.000000 5.000000 0.406843 -1.418643 -0.982932
1 5.117886 0.000000 0.000000 -0.406843 1.418643 0.982932
ITEM: TIMESTEP
24
ITEM: NUMBER OF ATOMS
2
ITEM: BOX BOUNDS pp pp pp
0 10.000000
0 10.000000
0 10.000000
ITEM: ATOMS id x y z vx vy vz 
0 0.085535 5.000000 5.000000 0.406843 -1.418643 -0.982932
1 4.914465 0.000000 0.000000 -0.406843 1.418643 0.982932
ITEM: TIMESTEP
25
ITEM: NUMBER OF ATOMS
2
ITEM: BOX BOUNDS pp pp pp
0 10.000000
0 10.000000
0 10.000000
ITEM: ATOMS id x y z vx vy vz 
0 0.288957 5.000000 5.000000 0.406843 -1.418643 -0.982932
1 4.711043 0.000000 0.000000 -0.406843 1.418643 0.982932
ITEM: TIMESTEP
26
ITEM: NUMBER OF ATOMS
2
ITEM: BOX BOUNDS pp pp pp
0 10.000000
0 10.000000
0 10.000000
ITEM: ATOMS id x y z vx vy vz 
0 0.492378 5.000000 5.000000 0.406843 -1.418643 -0.982932
1 4.507622 0.000000 0.000000 -0.406843 1.418643 0.982932
ITEM: TIMESTEP
27
ITEM: NUMBER OF ATOMS
2
ITEM: BOX BOUNDS pp pp pp
0 10.000000
0 10.000000
0 10.000000
ITEM: ATOMS id x y z vx vy vz 
0 0.695800 5.000000 5.000000 0.406843 -1.418643 -0.982932
1 4.304200 0.000000 0.000000 -0.406843 1.418643 0.982932
ITEM: TIMESTEP
28
ITEM: NUMBER OF ATOMS
2
ITEM: BOX BOUNDS pp pp pp
0 10.000000
0 10.000000
0 10.000000
ITEM: ATOMS id x y z vx vy vz 
0 0.899221 5.000000 5.000000 0.406843 -1.418643 -0.982932
1 4.100779 0.000000 0.000000 -0.406843 1.418643 0.982932
ITEM: TIMESTEP
29
ITEM: NUMBER OF ATOMS
2
ITEM: BOX BOUNDS pp pp pp
0 10.000000
0 10.000000
0 10.000000
ITEM: ATOMS id x y z vx vy vz 
0 1.102643 5.000000 5.000000 0.406843 -1.418643 -0.982932
1 3.897357 0.000000 0.000000 -0.406843 1.418643 0.982932
ITEM: TIMESTEP
30
ITEM: NUMBER OF ATOMS
2
ITEM: BOX BOUNDS pp pp pp
0 10.000000
0 10.000000
0 10.000000
ITEM: ATOMS id x y z vx vy vz 
0 1.306064 5.000000 5.000000 0.406843 -1.418643 -0.982932
1 3.693936 0.000000 0.000000 -0.406843 1.418643 0.982932
ITEM: TIMESTEP
31
ITEM: NUMBER OF ATOMS
2
ITEM: BOX BOUNDS pp pp pp
0 10.000000
0 10.000000
0 10.000000
ITEM: ATOMS id x y z vx vy vz 
0 1.509485 5.000000 5.000000 0.406843 -1.418643 -0.982932
1 3.490515 0.000000 0.000000 -0.406843 1.418643 0.982932
ITEM: TIMESTEP
32
ITEM: NUMBER OF ATOMS
2
ITEM: BOX BOUNDS pp pp pp
0 10.000000
0 10.000000
0 10.000000
ITEM: ATOMS id x y z vx vy vz 
0 1.712907 5.000000 5.000000 0.406843 -1.418643 -0.982932
1 3.287093 0.000000 0.000000 -0.406843 1.418643 0.982932
ITEM: TIMESTEP
33
ITEM: NUMBER OF ATOMS
2
ITEM: BOX BOUNDS pp pp pp
0 10.000000
0 10.000000
0 10.000000
ITEM: ATOMS id x y z vx vy vz 
0 1.916328 5.000000 5.000000 0.406843 -1.418643 -0.982932
1 3.083672 0.000000 0.000000 -0.406843 1.418643 0.982932
ITEM: TIMESTEP
34
ITEM: NUMBER OF ATOMS
2
ITEM: BOX BOUNDS pp pp pp
0 10.000000
0 10.000000
0 10.000000
ITEM: ATOMS id x y z vx vy vz 
0 2.119750 5.000000 5.000000 0.406843 -1.418643 -0.982932
1 2.880250 0.000000 0.000000 -0.406843 1.418643 0.982932
ITEM: TIMESTEP
35
ITEM: NUMBER OF ATOMS
2
ITEM: BOX BOUNDS pp pp pp
0 10.000000
0 10.000000
0 10.000000
ITEM: ATOMS id x y z vx vy vz 
0 2.323171 5.000000 5.000000 0.406843 -1.418643 -0.982932
1 2.676829 0.000000 0.000000 -0.406843 1.418643 0.982932
ITEM: TIMESTEP
36
ITEM: NUMBER OF ATOMS
2
ITEM: BOX BOUNDS pp pp pp
0 10.000000
0 10.000000
0 10.000000
ITEM: ATOMS id x y z vx vy vz 
0 2.526593 5.000000 5.000000 0.406843 -1.418643 -0.982932
1 2.473407 0.000000 0.000000 -0.406843 1.418643 0.982932
ITEM: TIMESTEP
37
ITEM: NUMBER OF ATOMS
2
ITEM: BOX BOUNDS pp pp pp
0 10.000000
0 10.000000
0 10.000000
ITEM: ATOMS id x y z vx vy vz 
0 2.730014 5.000000 5.000000 0.406843 -1.418643 -0.982932
1 2.269986 0.000000 0.000000 -0.406843 1.418643 0.982932
ITEM: TIMESTEP
38
ITEM: NUMBER OF ATOMS
2
ITEM: BOX BOUNDS pp pp pp
0 10.000000
0 10.000000
0 10.000000
ITEM: ATOMS id x y z vx vy vz 
0 2.933435 5.000000 5.000000 0.406843 -1.418643 -0.982932
1 2.066565 0.000000 0.000000 -0.406843 1.418643 0.982932
ITEM: TIMESTEP
39
ITEM: NUMBER OF ATOMS
2
ITEM: BOX BOUNDS pp pp pp
0 10.000000
0 10.000000
0 10.000000
ITEM: ATOMS id x y z vx vy vz 
0 3.136857 5.000000 5.000000 0.406843 -1.418643 -0.982932
1 1.863143 0.000000 0.000000 -0.406843 1.418643 0.982932
ITEM: TIMESTEP
40
ITEM: NUMBER OF ATOMS
2
ITEM: BOX BOUNDS pp pp pp
0 10.000000
0 10.000000
0 10.000000
ITEM: ATOMS id x y z vx vy vz 
0 3.340278 5.000000 5.000000 0.406843 -1.418643 -0.982932
1 1.659722 0.000000 0.000000 -0.406843 1.418643 0.982932
ITEM: TIMESTEP
41
ITEM: NUMBER OF ATOMS
2
ITEM: BOX BOUNDS pp pp pp
0 10.000000
0 10.000000
0 10.000000
ITEM: ATOMS id x y z vx vy vz 
0 3.543700 5.000000 5.000000 0.406843 -1.418643 -0.982932
1 1.456300 0.000000 0.000000 -0.406843 1.418643 0.982932
ITEM: TIMESTEP
42
ITEM: NUMBER OF ATOMS
2
ITEM: BOX BOUNDS pp pp pp
0 10.000000
0 10.000000
0 10.000000
ITEM: ATOMS id x y z vx vy vz 
0 3.747121 5.000000 5.000000 0.406843 -1.418643 -0.982932
1 1.252879 0.000000 0.000000 -0.406843 1.418643 0.982932
ITEM: TIMESTEP
43
ITEM: NUMBER OF ATOMS
2
ITEM: BOX BOUNDS pp pp pp
0 10.000000
0 10.000000
0 10.000000
ITEM: ATOMS id x y z vx vy vz 
0 3.950542 5.000000 5.000000 0.406843 -1.418643 -0.982932
1 1.049458 0.000000 0.000000 -0.406843 1.418643 0.982932
ITEM: TIMESTEP
44
ITEM: NUMBER OF ATOMS
2
ITEM: BOX BOUNDS pp pp pp
0 10.000000
0 10.000000
0 10.000000
ITEM: ATOMS id x y z vx vy vz 
0 4.153964 5.000000 5.000000 0.406843 -1.418643 -0.982932
1 0.846036 0.000000 0.000000 -0.406843 1.418643 0.982932
ITEM: TIMESTEP
45
ITEM: NUMBER OF ATOMS
2
ITEM: BOX BOUNDS pp pp pp
0 10.000000
0 10.000000
0 10.000000
ITEM: ATOMS id x y z vx vy vz 
0 4.357385 5.000000 5.000000 0.406843 -1.418643 -0.982932
1 0.642615 0.000000 0.000000 -0.406843 1.418643 0.982932
ITEM: TIMESTEP
46
ITEM: NUMBER OF ATOMS
2
ITEM: BOX BOUNDS pp pp pp
0 10.000000
0 10.000000
0 10.000000
ITEM: ATOMS id x y z vx vy vz 
0 4.560807 5.000000 5.000000 0.406843 -1.418643 -0.982932
1 0.439193 0.000000 0.000000 -0.406843 1.418643 0.982932
ITEM: TIMESTEP
47
ITEM: NUMBER OF ATOMS
2
ITEM: BOX BOUNDS pp pp pp
0 10.000000
0 10.000000
0 10.000000
ITEM: ATOMS id x y z vx vy vz 
0 4.764228 5.000000 5.000000 0.406843 -1.418643 -0.982932
1 0.235772 0.000000 0.000000 -0.406843 1.418643 0.982932
ITEM: TIMESTEP
48
ITEM: NUMBER OF ATOMS
2
ITEM: BOX BOUNDS pp pp pp
0 10.000000
0 10.000000
0 10.000000
ITEM: ATOMS id x y z vx vy vz 
0 4.967650 5.000000 5.000000 0.406843 -1.418643 -0.982932
1 0.032350 0.000000 0.000000 -0.406843 1.418643 0.982932
ITEM: TIMESTEP
49
ITEM: NUMBER OF ATOMS
2
ITEM: BOX BOUNDS pp pp pp
0 10.000000
0 10.000000
0 10.000000
ITEM: ATOMS id x y z vx vy vz 
0 5.171071 5.000000 5.000000 0.406843 -1.418643 -0.982932
1 9.828929 0.000000 0.000000 -0.406843 1.418643 0.982932
ITEM: TIMESTEP
50
ITEM: NUMBER OF ATOMS
2
ITEM: BOX BOUNDS pp pp pp
0 10.000000
0 10.000000
0 10.000000
ITEM: ATOMS id x y z vx vy vz 
0 5.374492 5.000000 5.000000 0.406843 -1.418643 -0.982932
1 9.625508 0.000000 0.000000 -0.406843 1.418643 0.982932
ITEM: TIMESTEP
51
ITEM: NUMBER OF ATOMS
2
ITEM: BOX BOUNDS pp pp pp
0 10.000000
0 10.000000
0 10.000000
ITEM: ATOMS id x y z vx vy vz 
0 5.577914 5.000000 5.000000 0.406843 -1.418643 -0.982932
1 9.422086 0.000000 0.000000 -0.406843 1.418643 0.982932
ITEM: TIMESTEP
52
ITEM: NUMBER OF ATOMS
2
ITEM: BOX BOUNDS pp pp pp
0 10.000000
0 10.000000
0 10.000000
ITEM: ATOMS id x y z vx vy vz 
0 5.781335 5.000000 5.000000 0.406843 -1.418643 -0.982932
1 9.218665 0.000000 0.000000 -0.406843 1.418643 0.982932
ITEM: TIMESTEP
53
ITEM: NUMBER OF ATOMS
2
ITEM: BOX BOUNDS pp pp pp
0 10.000000
0 10.000000
0 10.000000
ITEM: ATOMS id x y z vx vy vz 
0 5.984757 5.000000 5.000000 0.406843 -1.418643 -0.982932
1 9.015243 0.000000 0.000000 -0.406843 1.418643 0.982932
ITEM: TIMESTEP
54
ITEM: NUMBER OF ATOMS
2
ITEM: BOX BOUNDS pp pp pp
0 10.000000
0 10.000000
0 10.000000
ITEM: ATOMS id x y z vx vy vz 
0 6.188178 5.000000 5.000000 0.406843 -1.418643 -0.982932
1 8.811822 0.000000 0.000000 -0.406843 1.418643 0.982932
ITEM: TIMESTEP
55
ITEM: NUMBER OF ATOMS
2
ITEM: BOX BOUNDS pp pp pp
0 10.000000
0 10.000000
0 10.000000
ITEM: ATOMS id x y z vx vy vz 
0 6.391600 5.000000 5.000000 0.406843 -1.418643 -0.982932
1 8.608400 0.000000 0.000000 -0.406843 1.418643 0.982932
ITEM: TIMESTEP
56
ITEM: NUMBER OF ATOMS
2
ITEM: BOX BOUNDS pp pp pp
0 10.000000
0 10.000000
0 10.000000
ITEM: ATOMS id x y z vx vy vz 
0 6.595021 5.000000 5.000000 0.406843 -1.418643 -0.982932
1 8.404979 0.000000 0.000000 -0.406843 1.418643 0.982932
ITEM: TIMESTEP
57
ITEM: NUMBER OF ATOMS
2
ITEM: BOX BOUNDS pp pp pp
0 10.000000
0 10.000000
0 10.000000
ITEM: ATOMS id x y z vx vy vz 
0 6.798442 5.000000 5.000000 0.406843 -1.418643 -0.982932
1 8.201558 0.000000 0.000000 -0.406843 1.418643 0.982932
ITEM: TIMESTEP
58
ITEM: NUMBER OF ATOMS
2
ITEM: BOX BOUNDS pp pp pp
0 10.000000
0 10.000000
0 10.000000
ITEM: ATOMS id x y z vx vy vz 
0 7.001864 5.000000 5.000000 0.406843 -1.418643 -0.982932
1 7.998136 0.000000 0.000000 -0.406843 1.418643 0.982932
ITEM: TIMESTEP
59
ITEM: NUMBER OF ATOMS
2
ITEM: BOX BOUNDS pp pp pp
0 10.000000
0 10.000000
0 10.000000
ITEM: ATOMS id x y z vx vy vz 
0 7.205285 5.000000 5.000000 0.406843 -1.418643 -0.982932
1 7.794715 0.000000 0.000000 -0.406843 1.418643 0.982932
ITEM: TIMESTEP
60
ITEM: NUMBER OF ATOMS
2
ITEM: BOX BOUNDS pp pp pp
0 10.000000
0 10.000000
0 10.000000
ITEM: ATOMS id x y z vx vy vz 
0 7.408707 5.000000 5.000000 0.406843 -1.418643 -0.982932
1 7.591293 0.000000 0.000000 -0.406843 1.418643 0.982932
ITEM: TIMESTEP
61
ITEM: NUMBER OF ATOMS
2
ITEM: BOX BOUNDS pp pp pp
0 10.000000
0 10.000000
0 10.000000
ITEM: ATOMS id x y z vx vy vz 
0 7.612128 5.000000 5.000000 0.406843 -1.418643 -0.982932
1 7.387872 0.000000 0.000000 -0.406843 1.418643 0.982932
ITEM: TIMESTEP
62
ITEM: NUMBER OF ATOMS
2
ITEM: BOX BOUNDS pp pp pp
0 10.000000
0 10.000000
0 10.000000
ITEM: ATOMS id x y z vx vy vz 
0 7.815549 5.000000 5.000000 0.406843 -1.418643 -0.982932
1 7.184451 0.000000 0.000000 -0.406843 1.418643 0.982932
ITEM: TIMESTEP
63
ITEM: NUMBER OF ATOMS
2
ITEM: BOX BOUNDS pp pp pp
0 10.000000
0 10.000000
0 10.000000
ITEM: ATOMS id x y z vx vy vz 
0 8.018971 5.000000 5.000000 0.406843 -1.418643 -0.982932
1 6.981029 0.000000 0.000000 -0.406843 1.418643 0.982932
ITEM: TIMESTEP
64
ITEM: NUMBER OF ATOMS
2
ITEM: BOX BOUNDS pp pp pp
0 10.000000
0 10.000000
0 10.000000
ITEM: ATOMS id x y z vx vy vz 
0 8.222392 5.000000 5.000000 0.406843 -1.418643 -0.982932
1 6.777608 0.000000 0.000000 -0.406843 1.418643 0.982932
ITEM: TIMESTEP
65
ITEM: NUMBER OF ATOMS
2
ITEM: BOX BOUNDS pp pp pp
0 10.000000
0 10.000000
0 10.000000
ITEM: ATOMS id x y z vx vy vz 
0 8.425814 5.000000 5.000000 0.406843 -1.418643 -0.982932
1 6.574186 0.000000 0.000000 -0.406843 1.418643 0.982932
ITEM: TIMESTEP
66
ITEM: NUMBER OF ATOMS
2
ITEM: BOX BOUNDS pp pp pp
0 10.000000
0 10.000000
0 10.000000
ITEM: ATOMS id x y z vx vy vz 
0 8.629235 5.000000 5.000000 0.406843 -1.418643 -0.982932
1 6.370765 0.000000 0.000000 -0.406843 1.418643 0.982932
ITEM: TIMESTEP
67
ITEM: NUMBER OF ATOMS
2
ITEM: BOX BOUNDS pp pp pp
0 10.000000
0 10.000000
0 10.000000
ITEM: ATOMS id x y z vx vy vz 
0 8.832657 5.000000 5.000000 0.406843 -1.418643 -0.982932
1 6.167343 0.000000 0.000000 -0.406843 1.418643 0.982932
ITEM: TIMESTEP
68
ITEM: NUMBER OF ATOMS
2
ITEM: BOX BOUNDS pp pp pp
0 10.000000
0 10.000000
0 10.000000
ITEM: ATOMS id x y z vx vy vz 
0 9.036078 5.000000 5.000000 0.406843 -1.418643 -0.982932
1 5.963922 0.000000 0.000000 -0.406843 1.418643 0.982932
ITEM: TIMESTEP
69
ITEM: NUMBER OF ATOMS
2
ITEM: BOX BOUNDS pp pp pp
0 10.000000
0 10.000000
0 10.000000
ITEM: ATOMS id x y z vx vy vz 
0 9.239499 5.000000 5.000000 0.406843 -1.418643 -0.982932
1 5.760501 0.000000 0.000000 -0.406843 1.418643 0.982932
ITEM: TIMESTEP
70
ITEM: NUMBER OF ATOMS
2
ITEM: BOX BOUNDS pp pp pp
0 10.000000
0 10.000000
0 10.000000
ITEM: ATOMS id x y z vx vy vz 
0 9.442921 5.000000 5.000000 0.406843 -1.418643 -0.982932
1 5.557079 0.000000 0.000000 -0.406843 1.418643 0.982932
ITEM: TIMESTEP
71
ITEM: NUMBER OF ATOMS
2
ITEM: BOX BOUNDS pp pp pp
0 10.000000
0 10.000000
0 10.000000
ITEM: ATOMS id x y z vx vy vz 
0 9.646342 5.000000 5.000000 0.406843 -1.418643 -0.982932
1 5.353658 0.000000 0.000000 -0.406843 1.418643 0.982932
ITEM: TIMESTEP
72
ITEM: NUMBER OF ATOMS
2
ITEM: BOX BOUNDS pp pp pp
0 10.000000
0 10.000000
0 10.000000
ITEM: ATOMS id x y z vx vy vz 
0 9.849764 5.000000 5.000000 0.406843 -1.418643 -0.982932
1 5.150236 0.000000 0.000000 -0.406843 1.418643 0.982932
ITEM: TIMESTEP
73
ITEM: NUMBER OF ATOMS
2
ITEM: BOX BOUNDS pp pp pp
0 10.000000
0 10.000000
0 10.000000
ITEM: ATOMS id x y z vx vy vz 
0 0.053185 5.000000 5.000000 0.406843 -1.418643 -0.982932
1 4.946815 0.000000 0.000000 -0.406843 1.418643 0.982932
ITEM: TIMESTEP
74
ITEM: NUMBER OF ATOMS
2
ITEM: BOX BOUNDS pp pp pp
0 10.000000
0 10.000000
0 10.000000
ITEM: ATOMS id x y z vx vy vz 
0 0.256606 5.000000 5.000000 0.406843 -1.418643 -0.982932
1 4.743394 0.000000 0.000000 -0.406843 1.418643 0.982932
ITEM: TIMESTEP
75
ITEM: NUMBER OF ATOMS
2
ITEM: BOX BOUNDS pp pp pp
0 10.000000
0 10.000000
0 10.000000
ITEM: ATOMS id x y z vx vy vz 
0 0.460028 5.000000 5.000000 0.406843 -1.418643 -0.982932
1 4.539972 0.000000 0.000000 -0.406843 1.418643 0.982932
ITEM: TIMESTEP
76
ITEM: NUMBER OF ATOMS
2
ITEM: BOX BOUNDS pp pp pp
0 10.000000
0 10.000000
0 10.000000
ITEM: ATOMS id x y z vx vy vz 
0 0.663449 5.000000 5.000000 0.406843 -1.418643 -0.982932
1 4.336551 0.000000 0.000000 -0.406843 1.418643 0.982932
ITEM: TIMESTEP
77
ITEM: NUMBER OF ATOMS
2
ITEM: BOX BOUNDS pp pp pp
0 10.000000
0 10.000000
0 10.000000
ITEM: ATOMS id x y z vx vy vz 
0 0.866871 5.000000 5.000000 0.406843 -1.418643 -0.982932
1 4.133129 0.000000 0.000000 -0.406843 1.418643 0.982932
ITEM: TIMESTEP
78
ITEM: NUMBER OF ATOMS
2
ITEM: BOX BOUNDS pp pp pp
0 10.000000
0 10.000000
0 10.000000
ITEM: ATOMS id x y z vx vy vz 
0 1.070292 5.000000 5.000000 0.406843 -1.418643 -0.982932
1 3.929708 0.000000 0.000000 -0.406843 1.418643 0.982932
ITEM: TIMESTEP
79
ITEM: NUMBER OF ATOMS
2
ITEM: BOX BOUNDS pp pp pp
0 10.000000
0 10.000000
0 10.000000
ITEM: ATOMS id x y z vx vy vz 
0 1.273714 5.000000 5.000000 0.406843 -1.418643 -0.982932
1 3.726286 0.000000 0.000000 -0.406843 1.418643 0.982932
ITEM: TIMESTEP
80
ITEM: NUMBER OF ATOMS
2
ITEM: BOX BOUNDS pp pp pp
0 10.000000
0 10.000000
0 10.000000
ITEM: ATOMS id x y z vx vy vz 
0 1.477135 5.000000 5.000000 0.406843 -1.418643 -0.982932
1 3.522865 0.000000 0.000000 -0.406843 1.418643 0.982932
ITEM: TIMESTEP
81
ITEM: NUMBER OF ATOMS
2
ITEM: BOX BOUNDS pp pp pp
0 10.000000
0 10.000000
0 10.000000
ITEM: ATOMS id x y z vx vy vz 
0 1.680556 5.000000 5.000000 0.406843 -1.418643 -0.982932
1 3.319444 0.000000 0.000000 -0.406843 1.418643 0.982932
ITEM: TIMESTEP
82
ITEM: NUMBER OF ATOMS
2
ITEM: BOX BOUNDS pp pp pp
0 10.000000
0 10.000000
0 10.000000
ITEM: ATOMS id x y z vx vy vz 
0 1.883978 5.000000 5.000000 0.406843 -1.418643 -0.982932
1 3.116022 0.000000 0.000000 -0.406843 1.418643 0.982932
ITEM: TIMESTEP
83
ITEM: NUMBER OF ATOMS
2
ITEM: BOX BOUNDS pp pp pp
0 10.000000
0 10.000000
0 10.000000
ITEM: ATOMS id x y z vx vy vz 
0 2.087399 5.000000 5.000000 0.406843 -1.418643 -0.982932
1 2.912601 0.000000 0.000000 -0.406843 1.418643 0.982932
ITEM: TIMESTEP
84
ITEM: NUMBER OF ATOMS
2
ITEM: BOX BOUNDS pp pp pp
0 10.000000
0 10.000000
0 10.000000
ITEM: ATOMS id x y z vx vy vz 
0 2.290821 5.000000 5.000000 0.406843 -1.418643 -0.982932
1 2.709179 0.000000 0.000000 -0.406843 1.418643 0.982932
ITEM: TIMESTEP
85
ITEM: NUMBER OF ATOMS
2
ITEM: BOX BOUNDS pp pp pp
0 10.000000
0 10.000000
0 10.000000
ITEM: ATOMS id x y z vx vy vz 
0 2.494242 5.000000 5.000000 0.406843 -1.418643 -0.982932
1 2.505758 0.000000 0.000000 -0.406843 1.418643 0.982932
ITEM: TIMESTEP
86
ITEM: NUMBER OF ATOMS
2
ITEM: BOX BOUNDS pp pp pp
0 10.000000
0 10.000000
0 10.000000
ITEM: ATOMS id x y z vx vy vz 
0 2.697664 5.000000 5.000000 0.406843 -1.418643 -0.982932
1 2.302336 0.000000 0.000000 -0.406843 1.418643 0.982932
ITEM: TIMESTEP
87
ITEM: NUMBER OF ATOMS
2
ITEM: BOX BOUNDS pp pp pp
0 10.000000
0 10.000000
0 10.000000
ITEM: ATOMS id x y z vx vy vz 
0 2.901085 5.000000 5.000000 0.406843 -1.418643 -0.982932
1 2.098915 0.000000 0.000000 -0.406843 1.418643 0.982932
ITEM: TIMESTEP
88
ITEM: NUMBER OF ATOMS
2
ITEM: BOX BOUNDS pp pp pp
0 10.000000
0 10.000000
0 10.000000
ITEM: ATOMS id x y z vx vy vz 
0 3.104506 5.000000 5.000000 0.406843 -1.418643 -0.982932
1 1.895494 0.000000 0.000000 -0.406843 1.418643 0.982932
ITEM: TIMESTEP
89
ITEM: NUMBER OF ATOMS
2
ITEM: BOX BOUNDS pp pp pp
0 10.000000
0 10.000000
0 10.000000
ITEM: ATOMS id x y z vx vy vz 
0 3.307928 5.000000 5.000000 0.406843 -1.418643 -0.982932
1 1.692072 0.000000 0.000000 -0.406843 1.418643 0.982932
ITEM: TIMESTEP
90
ITEM: NUMBER OF ATOMS
2
ITEM: BOX BOUNDS pp pp pp
0 10.000000
0 10.000000
0 10.000000
ITEM: ATOMS id x y z vx vy vz 
0 3.511349 5.000000 5.000000 0.406843 -1.418643 -0.982932
1 1.488651 0.000000 0.000000 -0.406843 1.418643 0.982932
ITEM: TIMESTEP
91
ITEM: NUMBER OF ATOMS
2
ITEM: BOX BOUNDS pp pp pp
0 10.000000
0 10.000000
0 10.000000
ITEM: ATOMS id x y z vx vy vz 
0 3.714771 5.000000 5.000000 0.406843 -1.418643 -0.982932
1 1.285229 0.000000 0.000000 -0.406843 1.418643 0.982932
ITEM: TIMESTEP
92
ITEM: NUMBER OF ATOMS
2
ITEM: BOX BOUNDS pp pp pp
0 10.000000
0 10.000000
0 10.000000
ITEM: ATOMS id x y z vx vy vz 
0 3.918192 5.000000 5.000000 0.406843 -1.418643 -0.982932
1 1.081808 0.000000 0.000000 -0.406843 1.418643 0.982932
ITEM: TIMESTEP
93
ITEM: NUMBER OF ATOMS
2
ITEM: BOX BOUNDS pp pp pp
0 10.000000
0 10.000000
0 10.000000
ITEM: ATOMS id x y z vx vy vz 
0 4.121613 5.000000 5.000000 0.406843 -1.418643 -0.982932
1 0.878387 0.000000 0.000000 -0.406843 1.418643 0.982932
ITEM: TIMESTEP
94
ITEM: NUMBER OF ATOMS
2
ITEM: BOX BOUNDS pp pp pp
0 10.000000
0 10.000000
0 10.000000
ITEM: ATOMS id x y z vx vy vz 
0 4.325035 5.000000 5.000000 0.406843 -1.418643 -0.982932
1 0.674965 0.000000 0.000000 -0.406843 1.418643 0.982932
ITEM: TIMESTEP
95
ITEM: NUMBER OF ATOMS
2
ITEM: BOX BOUNDS pp pp pp
0 10.000000
0 10.000000
0 10.000000
ITEM: ATOMS id x y z vx vy vz 
0 4.528456 5.000000 5.000000 0.406843 -1.418643 -0.982932
1 0.471544 0.000000 0.000000 -0.406843 1.418643 0.982932
ITEM: TIMESTEP
96
ITEM: NUMBER OF ATOMS
2
ITEM: BOX BOUNDS pp pp pp
0 10.000000
0 10.000000
0 10.000000
ITEM: ATOMS id x y z vx vy vz 
0 4.731878 5.000000 5.000000 0.406843 -1.418643 -0.982932
1 0.268122 0.000000 0.000000 -0.406843 1.418643 0.982932
ITEM: TIMESTEP
97
ITEM: NUMBER OF ATOMS
2
ITEM: BOX BOUNDS pp pp pp
0 10.000000
0 10.000000
0 10.000000
ITEM: ATOMS id x y z vx vy vz 
0 4.935299 5.000000 5.000000 0.406843 -1.418643 -0.982932
1 0.064701 0.000000 0.000000 -0.406843 1.418643 0.982932
ITEM: TIMESTEP
98
ITEM: NUMBER OF ATOMS
2
ITEM: BOX BOUNDS pp pp pp
0 10.000000
0 10.000000
0 10.000000
ITEM: ATOMS id x y z vx vy vz 
0 5.138721 5.000000 5.000000 0.406843 -1.418643 -0.982932
1 9.861279 0.000000 0.000000 -0.406843 1.418643 0.982932
ITEM: TIMESTEP
99
ITEM: NUMBER OF ATOMS
2
ITEM: BOX BOUNDS pp pp pp
0 10.000000
0 10.000000
0 10.000000
ITEM: ATOMS id x y z vx vy vz 
0 5.342142 5.000000 5.000000 0.406843 -1.418643 -0.982932
1 9.657858 0.000000 0.000000 -0.406843 1.418643 0.982932
