ITEM: TIMESTEP
0
ITEM: NUMBER OF ATOMS
2
ITEM: BOX BOUNDS pp pp pp
0 10.000000
0 10.000000
0 10.000000
ITEM: ATOMS id x y z vx vy vz 
0 0.500001 0.500003 0.499931 0.000911 0.002911 -0.092381
1 0.503003 0.503001 1.501075 1.503089 1.501089 0.598381
ITEM: TIMESTEP
1
ITEM: NUMBER OF ATOMS
2
ITEM: BOX BOUNDS pp pp pp
0 10.000000
0 10.000000
0 10.000000
ITEM: ATOMS id x y z vx vy vz 
0 0.500003 0.500011 0.499584 0.001475 0.005476 -0.277919
1 0.506013 0.506005 1.502440 1.506525 1.502524 0.789919
ITEM: TIMESTEP
2
ITEM: NUMBER OF ATOMS
2
ITEM: BOX BOUNDS pp pp pp
0 10.000000
0 10.000000
0 10.000000
ITEM: ATOMS id x y z vx vy vz 
0 0.500007 0.500025 0.498775 0.001437 0.007440 -0.553159
1 0.509029 0.509011 1.504279 1.510563 1.504560 1.071159
ITEM: TIMESTEP
3
ITEM: NUMBER OF ATOMS
2
ITEM: BOX BOUNDS pp pp pp
0 10.000000
0 10.000000
0 10.000000
ITEM: ATOMS id x y z vx vy vz 
0 0.500009 0.500041 0.497329 0.000580 0.008590 -0.913042
1 0.512055 0.512023 1.506767 1.515420 1.507410 1.437042
ITEM: TIMESTEP
4
ITEM: NUMBER OF ATOMS
2
ITEM: BOX BOUNDS pp pp pp
0 10.000000
0 10.000000
0 10.000000
ITEM: ATOMS id x y z vx vy vz 
0 0.500008 0.500058 0.495084 -0.001257 0.008764 -1.350627
1 0.515092 0.515042 1.510066 1.521257 1.511236 1.880627
ITEM: TIMESTEP
5
ITEM: NUMBER OF ATOMS
2
ITEM: BOX BOUNDS pp pp pp
0 10.000000
0 10.000000
0 10.000000
ITEM: ATOMS id x y z vx vy vz 
0 0.500003 0.500075 0.491892 -0.004161 0.007879 -1.857079
1 0.518141 0.518069 1.514324 1.528161 1.516121 2.393079
ITEM: TIMESTEP
6
ITEM: NUMBER OF ATOMS
2
ITEM: BOX BOUNDS pp pp pp
0 10.000000
0 10.000000
0 10.000000
ITEM: ATOMS id x y z vx vy vz 
0 0.499991 0.500089 0.487626 -0.008138 0.005931 -2.421969
1 0.521205 0.521107 1.519668 1.536138 1.522069 2.963969
ITEM: TIMESTEP
7
ITEM: NUMBER OF ATOMS
2
ITEM: BOX BOUNDS pp pp pp
0 10.000000
0 10.000000
0 10.000000
ITEM: ATOMS id x y z vx vy vz 
0 0.499970 0.500099 0.482180 -0.013106 0.003000 -3.033845
1 0.524286 0.524157 1.526204 1.545106 1.529000 3.581845
ITEM: TIMESTEP
8
ITEM: NUMBER OF ATOMS
2
ITEM: BOX BOUNDS pp pp pp
0 10.000000
0 10.000000
0 10.000000
ITEM: ATOMS id x y z vx vy vz 
0 0.499938 0.500101 0.475473 -0.018913 -0.000761 -3.680984
1 0.527386 0.527223 1.534013 1.554913 1.536761 4.234984
ITEM: TIMESTEP
9
ITEM: NUMBER OF ATOMS
2
ITEM: BOX BOUNDS pp pp pp
0 10.000000
0 10.000000
0 10.000000
ITEM: ATOMS id x y z vx vy vz 
0 0.499894 0.500095 0.467445 -0.025355 -0.005148 -4.352191
1 0.530506 0.530305 1.543155 1.565355 1.545148 4.912191
ITEM: TIMESTEP
10
ITEM: NUMBER OF ATOMS
2
ITEM: BOX BOUNDS pp pp pp
0 10.000000
0 10.000000
0 10.000000
ITEM: ATOMS id x y z vx vy vz 
0 0.499837 0.500080 0.458057 -0.032201 -0.009935 -5.037493
1 0.533647 0.533404 1.553669 1.576201 1.553935 5.603493
ITEM: TIMESTEP
11
ITEM: NUMBER OF ATOMS
2
ITEM: BOX BOUNDS pp pp pp
0 10.000000
0 10.000000
0 10.000000
ITEM: ATOMS id x y z vx vy vz 
0 0.499765 0.500055 0.447292 -0.039228 -0.014899 -5.728620
1 0.536811 0.536521 1.565572 1.587228 1.562899 6.300620
ITEM: TIMESTEP
12
ITEM: NUMBER OF ATOMS
2
ITEM: BOX BOUNDS pp pp pp
0 10.000000
0 10.000000
0 10.000000
ITEM: ATOMS id x y z vx vy vz 
0 0.499680 0.500021 0.435143 -0.046235 -0.019844 -6.419223
1 0.539996 0.539655 1.578871 1.598235 1.571844 6.997223
ITEM: TIMESTEP
13
ITEM: NUMBER OF ATOMS
2
ITEM: BOX BOUNDS pp pp pp
0 10.000000
0 10.000000
0 10.000000
ITEM: ATOMS id x y z vx vy vz 
0 0.499580 0.499976 0.421617 -0.053062 -0.024613 -7.104852
1 0.543204 0.542808 1.593559 1.609062 1.580613 7.688852
ITEM: TIMESTEP
14
ITEM: NUMBER OF ATOMS
2
ITEM: BOX BOUNDS pp pp pp
0 10.000000
0 10.000000
0 10.000000
ITEM: ATOMS id x y z vx vy vz 
0 0.499468 0.499922 0.406728 -0.059598 -0.029095 -7.782740
1 0.546432 0.545978 1.609622 1.619598 1.589095 8.372740
ITEM: TIMESTEP
15
ITEM: NUMBER OF ATOMS
2
ITEM: BOX BOUNDS pp pp pp
0 10.000000
0 10.000000
0 10.000000
ITEM: ATOMS id x y z vx vy vz 
0 0.499342 0.499860 0.390491 -0.065772 -0.033223 -8.451494
1 0.549682 0.549164 1.627045 1.629772 1.597223 9.047494
ITEM: TIMESTEP
16
ITEM: NUMBER OF ATOMS
2
ITEM: BOX BOUNDS pp pp pp
0 10.000000
0 10.000000
0 10.000000
ITEM: ATOMS id x y z vx vy vz 
0 0.499205 0.499790 0.372926 -0.071556 -0.036969 -9.110745
1 0.552951 0.552366 1.645808 1.639556 1.604969 9.712745
ITEM: TIMESTEP
17
ITEM: NUMBER OF ATOMS
2
ITEM: BOX BOUNDS pp pp pp
0 10.000000
0 10.000000
0 10.000000
ITEM: ATOMS id x y z vx vy vz 
0 0.499056 0.499712 0.354053 -0.076950 -0.040333 -9.760824
1 0.556240 0.555584 1.665891 1.648950 1.612333 10.368824
ITEM: TIMESTEP
18
ITEM: NUMBER OF ATOMS
2
ITEM: BOX BOUNDS pp pp pp
0 10.000000
0 10.000000
0 10.000000
ITEM: ATOMS id x y z vx vy vz 
0 0.498897 0.499628 0.333887 -0.081975 -0.043337 -10.402486
1 0.559547 0.558816 1.687279 1.657975 1.619337 11.016486
ITEM: TIMESTEP
19
ITEM: NUMBER OF ATOMS
2
ITEM: BOX BOUNDS pp pp pp
0 10.000000
0 10.000000
0 10.000000
ITEM: ATOMS id x y z vx vy vz 
0 0.498729 0.499539 0.312446 -0.086664 -0.046013 -11.036702
1 0.562871 0.562061 1.709954 1.666664 1.626013 11.656702
ITEM: TIMESTEP
20
ITEM: NUMBER OF ATOMS
2
ITEM: BOX BOUNDS pp pp pp
0 10.000000
0 10.000000
0 10.000000
ITEM: ATOMS id x y z vx vy vz 
0 0.498551 0.499445 0.289744 -0.091057 -0.048402 -11.664511
1 0.566213 0.565319 1.733902 1.675057 1.632402 12.290511
ITEM: TIMESTEP
21
ITEM: NUMBER OF ATOMS
2
ITEM: BOX BOUNDS pp pp pp
0 10.000000
0 10.000000
0 10.000000
ITEM: ATOMS id x y z vx vy vz 
0 0.498364 0.499346 0.265791 -0.095197 -0.050543 -12.286924
1 0.569572 0.568590 1.759113 1.683197 1.638543 12.918924
ITEM: TIMESTEP
22
ITEM: NUMBER OF ATOMS
2
ITEM: BOX BOUNDS pp pp pp
0 10.000000
0 10.000000
0 10.000000
ITEM: ATOMS id x y z vx vy vz 
0 0.498170 0.499242 0.240598 -0.099123 -0.052477 -12.904866
1 0.572946 0.571874 1.785576 1.691123 1.644477 13.542866
ITEM: TIMESTEP
23
ITEM: NUMBER OF ATOMS
2
ITEM: BOX BOUNDS pp pp pp
0 10.000000
0 10.000000
0 10.000000
ITEM: ATOMS id x y z vx vy vz 
0 0.497968 0.499136 0.214173 -0.102872 -0.054238 -13.519154
1 0.576336 0.575168 1.813283 1.698872 1.650238 14.163154
ITEM: TIMESTEP
24
ITEM: NUMBER OF ATOMS
2
ITEM: BOX BOUNDS pp pp pp
0 10.000000
0 10.000000
0 10.000000
ITEM: ATOMS id x y z vx vy vz 
0 0.497759 0.499026 0.186523 -0.106476 -0.055858 -14.130487
1 0.579741 0.578474 1.842227 1.706476 1.655858 14.780487
ITEM: TIMESTEP
25
ITEM: NUMBER OF ATOMS
2
ITEM: BOX BOUNDS pp pp pp
0 10.000000
0 10.000000
0 10.000000
ITEM: ATOMS id x y z vx vy vz 
0 0.497542 0.498912 0.157653 -0.109962 -0.057365 -14.739448
1 0.583162 0.581792 1.872403 1.713962 1.661365 15.395448
ITEM: TIMESTEP
26
ITEM: NUMBER OF ATOMS
2
ITEM: BOX BOUNDS pp pp pp
0 10.000000
0 10.000000
0 10.000000
ITEM: ATOMS id x y z vx vy vz 
0 0.497319 0.498796 0.127566 -0.113353 -0.058780 -15.346519
1 0.586597 0.585120 1.903808 1.721353 1.666780 16.008519
ITEM: TIMESTEP
27
ITEM: NUMBER OF ATOMS
2
ITEM: BOX BOUNDS pp pp pp
0 10.000000
0 10.000000
0 10.000000
ITEM: ATOMS id x y z vx vy vz 
0 0.497089 0.498677 0.096267 -0.116669 -0.060122 -15.952091
1 0.590047 0.588459 1.936437 1.728669 1.672122 16.620091
ITEM: TIMESTEP
28
ITEM: NUMBER OF ATOMS
2
ITEM: BOX BOUNDS pp pp pp
0 10.000000
0 10.000000
0 10.000000
ITEM: ATOMS id x y z vx vy vz 
0 0.496852 0.498556 0.063758 -0.119925 -0.061407 -16.556479
1 0.593512 0.591808 1.970288 1.735925 1.677407 17.230479
ITEM: TIMESTEP
29
ITEM: NUMBER OF ATOMS
2
ITEM: BOX BOUNDS pp pp pp
0 10.000000
0 10.000000
0 10.000000
ITEM: ATOMS id x y z vx vy vz 
0 0.496609 0.498432 0.030042 -0.123134 -0.062646 -17.159933
1 0.596991 0.595168 2.005358 1.743134 1.682646 17.839933
ITEM: TIMESTEP
30
ITEM: NUMBER OF ATOMS
2
ITEM: BOX BOUNDS pp pp pp
0 10.000000
0 10.000000
0 10.000000
ITEM: ATOMS id x y z vx vy vz 
0 0.496360 0.498305 -0.004881 -0.126306 -0.063848 -17.762653
1 0.600484 0.598539 2.041647 1.750306 1.687848 18.448653
ITEM: TIMESTEP
31
ITEM: NUMBER OF ATOMS
2
ITEM: BOX BOUNDS pp pp pp
0 10.000000
0 10.000000
0 10.000000
ITEM: ATOMS id x y z vx vy vz 
0 0.496104 0.498176 -0.041008 -0.129448 -0.065023 -18.364796
1 0.603992 0.601920 2.079152 1.757448 1.693023 19.056796
ITEM: TIMESTEP
32
ITEM: NUMBER OF ATOMS
2
ITEM: BOX BOUNDS pp pp pp
0 10.000000
0 10.000000
0 10.000000
ITEM: ATOMS id x y z vx vy vz 
0 0.495842 0.498045 -0.078340 -0.132567 -0.066175 -18.966488
1 0.607514 0.605311 2.117874 1.764567 1.698175 19.664488
ITEM: TIMESTEP
33
ITEM: NUMBER OF ATOMS
2
ITEM: BOX BOUNDS pp pp pp
0 10.000000
0 10.000000
0 10.000000
ITEM: ATOMS id x y z vx vy vz 
0 0.495574 0.497912 -0.116874 -0.135668 -0.067310 -19.567824
1 0.611050 0.608712 2.157810 1.771668 1.703310 20.271824
ITEM: TIMESTEP
34
ITEM: NUMBER OF ATOMS
2
ITEM: BOX BOUNDS pp pp pp
0 10.000000
0 10.000000
0 10.000000
ITEM: ATOMS id x y z vx vy vz 
0 0.495299 0.497776 -0.156611 -0.138755 -0.068432 -20.168881
1 0.614601 0.612124 2.198961 1.778755 1.708432 20.878881
ITEM: TIMESTEP
35
ITEM: NUMBER OF ATOMS
2
ITEM: BOX BOUNDS pp pp pp
0 10.000000
0 10.000000
0 10.000000
ITEM: ATOMS id x y z vx vy vz 
0 0.495019 0.497638 -0.197550 -0.141831 -0.069543 -20.769719
1 0.618165 0.615546 2.241326 1.785831 1.713543 21.485719
ITEM: TIMESTEP
36
ITEM: NUMBER OF ATOMS
2
ITEM: BOX BOUNDS pp pp pp
0 10.000000
0 10.000000
0 10.000000
ITEM: ATOMS id x y z vx vy vz 
0 0.494732 0.497498 -0.239690 -0.144899 -0.070646 -21.370404
1 0.621744 0.618978 2.284904 1.792899 1.718646 22.092404
ITEM: TIMESTEP
37
ITEM: NUMBER OF ATOMS
2
ITEM: BOX BOUNDS pp pp pp
0 10.000000
0 10.000000
0 10.000000
ITEM: ATOMS id x y z vx vy vz 
0 0.494439 0.497355 -0.283031 -0.147966 -0.071749 -21.971068
1 0.625337 0.622421 2.329695 1.799966 1.723749 22.699068
ITEM: TIMESTEP
38
ITEM: NUMBER OF ATOMS
2
ITEM: BOX BOUNDS pp pp pp
0 10.000000
0 10.000000
0 10.000000
ITEM: ATOMS id x y z vx vy vz 
0 0.494140 0.497211 -0.327574 -0.151033 -0.072851 -22.571732
1 0.628944 0.625873 2.375700 1.807033 1.728851 23.305732
ITEM: TIMESTEP
39
ITEM: NUMBER OF ATOMS
2
ITEM: BOX BOUNDS pp pp pp
0 10.000000
0 10.000000
0 10.000000
ITEM: ATOMS id x y z vx vy vz 
0 0.493835 0.497064 -0.373318 -0.154100 -0.073954 -23.172396
1 0.632565 0.629336 2.422918 1.814100 1.733954 23.912396
ITEM: TIMESTEP
40
ITEM: NUMBER OF ATOMS
2
ITEM: BOX BOUNDS pp pp pp
0 10.000000
0 10.000000
0 10.000000
ITEM: ATOMS id x y z vx vy vz 
0 0.493524 0.496915 -0.420264 -0.157167 -0.075056 -23.773060
1 0.636200 0.632809 2.471350 1.821167 1.739056 24.519060
ITEM: TIMESTEP
41
ITEM: NUMBER OF ATOMS
2
ITEM: BOX BOUNDS pp pp pp
0 10.000000
0 10.000000
0 10.000000
ITEM: ATOMS id x y z vx vy vz 
0 0.493206 0.496764 -0.468410 -0.160234 -0.076159 -24.373724
1 0.639850 0.636292 2.520994 1.828234 1.744159 25.125724
ITEM: TIMESTEP
42
ITEM: NUMBER OF ATOMS
2
ITEM: BOX BOUNDS pp pp pp
0 10.000000
0 10.000000
0 10.000000
ITEM: ATOMS id x y z vx vy vz 
0 0.492883 0.496610 -0.517759 -0.163302 -0.077261 -24.974388
1 0.643513 0.639786 2.571853 1.835302 1.749261 25.732388
ITEM: TIMESTEP
43
ITEM: NUMBER OF ATOMS
2
ITEM: BOX BOUNDS pp pp pp
0 10.000000
0 10.000000
0 10.000000
ITEM: ATOMS id x y z vx vy vz 
0 0.492553 0.496455 -0.568308 -0.166369 -0.078364 -25.575052
1 0.647191 0.643289 2.623924 1.842369 1.754364 26.339052
ITEM: TIMESTEP
44
ITEM: NUMBER OF ATOMS
2
ITEM: BOX BOUNDS pp pp pp
0 10.000000
0 10.000000
0 10.000000
ITEM: ATOMS id x y z vx vy vz 
0 0.492217 0.496297 -0.620059 -0.169436 -0.079466 -26.175717
1 0.650883 0.646803 2.677209 1.849436 1.759466 26.945717
ITEM: TIMESTEP
45
ITEM: NUMBER OF ATOMS
2
ITEM: BOX BOUNDS pp pp pp
0 10.000000
0 10.000000
0 10.000000
ITEM: ATOMS id x y z vx vy vz 
0 0.491875 0.496137 -0.673011 -0.172503 -0.080569 -26.776381
1 0.654589 0.650327 2.731707 1.856503 1.764569 27.552381
ITEM: TIMESTEP
46
ITEM: NUMBER OF ATOMS
2
ITEM: BOX BOUNDS pp pp pp
0 10.000000
0 10.000000
0 10.000000
ITEM: ATOMS id x y z vx vy vz 
0 0.491527 0.495975 -0.727164 -0.175570 -0.081671 -27.377045
1 0.658309 0.653861 2.787418 1.863570 1.769671 28.159045
ITEM: TIMESTEP
47
ITEM: NUMBER OF ATOMS
2
ITEM: BOX BOUNDS pp pp pp
0 10.000000
0 10.000000
0 10.000000
ITEM: ATOMS id x y z vx vy vz 
0 0.491173 0.495810 -0.782519 -0.178637 -0.082774 -27.977709
1 0.662043 0.657406 2.844343 1.870637 1.774774 28.765709
ITEM: TIMESTEP
48
ITEM: NUMBER OF ATOMS
2
ITEM: BOX BOUNDS pp pp pp
0 10.000000
0 10.000000
0 10.000000
ITEM: ATOMS id x y z vx vy vz 
0 0.490813 0.495643 -0.839075 -0.181704 -0.083876 -28.578373
1 0.665791 0.660961 2.902481 1.877704 1.779876 29.372373
ITEM: TIMESTEP
49
ITEM: NUMBER OF ATOMS
2
ITEM: BOX BOUNDS pp pp pp
0 10.000000
0 10.000000
0 10.000000
ITEM: ATOMS id x y z vx vy vz 
0 0.490446 0.495475 -0.896833 -0.184771 -0.084979 -29.179037
1 0.669554 0.664525 2.961833 1.884771 1.784979 29.979037
ITEM: TIMESTEP
50
ITEM: NUMBER OF ATOMS
2
ITEM: BOX BOUNDS pp pp pp
0 10.000000
0 10.000000
0 10.000000
ITEM: ATOMS id x y z vx vy vz 
0 0.490074 0.495303 -0.955791 -0.187838 -0.086081 -29.779701
1 0.673330 0.668101 3.022397 1.891838 1.790081 30.585701
ITEM: TIMESTEP
51
ITEM: NUMBER OF ATOMS
2
ITEM: BOX BOUNDS pp pp pp
0 10.000000
0 10.000000
0 10.000000
ITEM: ATOMS id x y z vx vy vz 
0 0.489695 0.495130 -1.015951 -0.190905 -0.087184 -30.380365
1 0.677121 0.671686 3.084175 1.898905 1.795184 31.192365
ITEM: TIMESTEP
52
ITEM: NUMBER OF ATOMS
2
ITEM: BOX BOUNDS pp pp pp
0 10.000000
0 10.000000
0 10.000000
ITEM: ATOMS id x y z vx vy vz 
0 0.489310 0.494955 -1.077313 -0.193972 -0.088286 -30.981029
1 0.680926 0.675281 3.147167 1.905972 1.800286 31.799029
ITEM: TIMESTEP
53
ITEM: NUMBER OF ATOMS
2
ITEM: BOX BOUNDS pp pp pp
0 10.000000
0 10.000000
0 10.000000
ITEM: ATOMS id x y z vx vy vz 
0 0.488919 0.494777 -1.139875 -0.197039 -0.089389 -31.581694
1 0.684745 0.678887 3.211371 1.913039 1.805389 32.405694
ITEM: TIMESTEP
54
ITEM: NUMBER OF ATOMS
2
ITEM: BOX BOUNDS pp pp pp
0 10.000000
0 10.000000
0 10.000000
ITEM: ATOMS id x y z vx vy vz 
0 0.488522 0.494597 -1.203639 -0.200107 -0.090491 -32.182358
1 0.688578 0.682503 3.276789 1.920107 1.810491 33.012358
ITEM: TIMESTEP
55
ITEM: NUMBER OF ATOMS
2
ITEM: BOX BOUNDS pp pp pp
0 10.000000
0 10.000000
0 10.000000
ITEM: ATOMS id x y z vx vy vz 
0 0.488119 0.494415 -1.268605 -0.203174 -0.091594 -32.783022
1 0.692425 0.686129 3.343421 1.927174 1.815594 33.619022
ITEM: TIMESTEP
56
ITEM: NUMBER OF ATOMS
2
ITEM: BOX BOUNDS pp pp pp
0 10.000000
0 10.000000
0 10.000000
ITEM: ATOMS id x y z vx vy vz 
0 0.487709 0.494231 -1.334772 -0.206241 -0.092696 -33.383686
1 0.696287 0.689765 3.411266 1.934241 1.820696 34.225686
ITEM: TIMESTEP
57
ITEM: NUMBER OF ATOMS
2
ITEM: BOX BOUNDS pp pp pp
0 10.000000
0 10.000000
0 10.000000
ITEM: ATOMS id x y z vx vy vz 
0 0.487294 0.494044 -1.402140 -0.209308 -0.093799 -33.984350
1 0.700162 0.693412 3.480324 1.941308 1.825799 34.832350
ITEM: TIMESTEP
58
ITEM: NUMBER OF ATOMS
2
ITEM: BOX BOUNDS pp pp pp
0 10.000000
0 10.000000
0 10.000000
ITEM: ATOMS id x y z vx vy vz 
0 0.486872 0.493856 -1.470709 -0.212375 -0.094901 -34.585014
1 0.704052 0.697068 3.550595 1.948375 1.830901 35.439014
ITEM: TIMESTEP
59
ITEM: NUMBER OF ATOMS
2
ITEM: BOX BOUNDS pp pp pp
0 10.000000
0 10.000000
0 10.000000
ITEM: ATOMS id x y z vx vy vz 
0 0.486444 0.493665 -1.540480 -0.215442 -0.096004 -35.185678
1 0.707956 0.700735 3.622080 1.955442 1.836004 36.045678
ITEM: TIMESTEP
60
ITEM: NUMBER OF ATOMS
2
ITEM: BOX BOUNDS pp pp pp
0 10.000000
0 10.000000
0 10.000000
ITEM: ATOMS id x y z vx vy vz 
0 0.486010 0.493472 -1.611452 -0.218509 -0.097106 -35.786342
1 0.711874 0.704412 3.694778 1.962509 1.841106 36.652342
ITEM: TIMESTEP
61
ITEM: NUMBER OF ATOMS
2
ITEM: BOX BOUNDS pp pp pp
0 10.000000
0 10.000000
0 10.000000
ITEM: ATOMS id x y z vx vy vz 
0 0.485570 0.493276 -1.683625 -0.221576 -0.098209 -36.387006
1 0.715806 0.708100 3.768689 1.969576 1.846209 37.259006
ITEM: TIMESTEP
62
ITEM: NUMBER OF ATOMS
2
ITEM: BOX BOUNDS pp pp pp
0 10.000000
0 10.000000
0 10.000000
ITEM: ATOMS id x y z vx vy vz 
0 0.485124 0.493079 -1.757000 -0.224643 -0.099311 -36.987671
1 0.719752 0.711797 3.843814 1.976643 1.851311 37.865671
ITEM: TIMESTEP
63
ITEM: NUMBER OF ATOMS
2
ITEM: BOX BOUNDS pp pp pp
0 10.000000
0 10.000000
0 10.000000
ITEM: ATOMS id x y z vx vy vz 
0 0.484671 0.492879 -1.831576 -0.227710 -0.100414 -37.588335
1 0.723713 0.715505 3.920152 1.983710 1.856414 38.472335
ITEM: TIMESTEP
64
ITEM: NUMBER OF ATOMS
2
ITEM: BOX BOUNDS pp pp pp
0 10.000000
0 10.000000
0 10.000000
ITEM: ATOMS id x y z vx vy vz 
0 0.484213 0.492677 -1.907353 -0.230777 -0.101516 -38.188999
1 0.727687 0.719223 3.997703 1.990777 1.861516 39.078999
ITEM: TIMESTEP
65
ITEM: NUMBER OF ATOMS
2
ITEM: BOX BOUNDS pp pp pp
0 10.000000
0 10.000000
0 10.000000
ITEM: ATOMS id x y z vx vy vz 
0 0.483748 0.492473 -1.984332 -0.233844 -0.102619 -38.789663
1 0.731676 0.722951 4.076468 1.997844 1.866619 39.685663
ITEM: TIMESTEP
66
ITEM: NUMBER OF ATOMS
2
ITEM: BOX BOUNDS pp pp pp
0 10.000000
0 10.000000
0 10.000000
ITEM: ATOMS id x y z vx vy vz 
0 0.483278 0.492267 -2.062512 -0.236912 -0.103721 -39.390327
1 0.735678 0.726689 4.156446 2.004912 1.871721 40.292327
ITEM: TIMESTEP
67
ITEM: NUMBER OF ATOMS
2
ITEM: BOX BOUNDS pp pp pp
0 10.000000
0 10.000000
0 10.000000
ITEM: ATOMS id x y z vx vy vz 
0 0.482801 0.492058 -2.141893 -0.239979 -0.104824 -39.990991
1 0.739695 0.730438 4.237637 2.011979 1.876824 40.898991
ITEM: TIMESTEP
68
ITEM: NUMBER OF ATOMS
2
ITEM: BOX BOUNDS pp pp pp
0 10.000000
0 10.000000
0 10.000000
ITEM: ATOMS id x y z vx vy vz 
0 0.482318 0.491847 -2.222476 -0.243046 -0.105926 -40.591655
1 0.743726 0.734197 4.320042 2.019046 1.881926 41.505655
ITEM: TIMESTEP
69
ITEM: NUMBER OF ATOMS
2
ITEM: BOX BOUNDS pp pp pp
0 10.000000
0 10.000000
0 10.000000
ITEM: ATOMS id x y z vx vy vz 
0 0.481828 0.491634 -2.304260 -0.246113 -0.107029 -41.192319
1 0.747772 0.737966 4.403660 2.026113 1.887029 42.112319
ITEM: TIMESTEP
70
ITEM: NUMBER OF ATOMS
2
ITEM: BOX BOUNDS pp pp pp
0 10.000000
0 10.000000
0 10.000000
ITEM: ATOMS id x y z vx vy vz 
0 0.481333 0.491419 -2.387245 -0.249180 -0.108131 -41.792983
1 0.751831 0.741745 4.488491 2.033180 1.892131 42.718983
ITEM: TIMESTEP
71
ITEM: NUMBER OF ATOMS
2
ITEM: BOX BOUNDS pp pp pp
0 10.000000
0 10.000000
0 10.000000
ITEM: ATOMS id x y z vx vy vz 
0 0.480832 0.491202 -2.471432 -0.252247 -0.109234 -42.393648
1 0.755904 0.745534 4.574536 2.040247 1.897234 43.325648
ITEM: TIMESTEP
72
ITEM: NUMBER OF ATOMS
2
ITEM: BOX BOUNDS pp pp pp
0 10.000000
0 10.000000
0 10.000000
ITEM: ATOMS id x y z vx vy vz 
0 0.480324 0.490982 -2.556820 -0.255314 -0.110336 -42.994312
1 0.759992 0.749334 4.661794 2.047314 1.902336 43.932312
ITEM: TIMESTEP
73
ITEM: NUMBER OF ATOMS
2
ITEM: BOX BOUNDS pp pp pp
0 10.000000
0 10.000000
0 10.000000
ITEM: ATOMS id x y z vx vy vz 
0 0.479811 0.490761 -2.643409 -0.258381 -0.111439 -43.594976
1 0.764093 0.753143 4.750265 2.054381 1.907439 44.538976
ITEM: TIMESTEP
74
ITEM: NUMBER OF ATOMS
2
ITEM: BOX BOUNDS pp pp pp
0 10.000000
0 10.000000
0 10.000000
ITEM: ATOMS id x y z vx vy vz 
0 0.479291 0.490537 -2.731199 -0.261446 -0.112539 -44.195661
1 0.768209 0.756963 4.839949 2.061446 1.912539 45.145661
ITEM: TIMESTEP
75
ITEM: NUMBER OF ATOMS
2
ITEM: BOX BOUNDS pp pp pp
0 10.000000
0 10.000000
0 10.000000
ITEM: ATOMS id x y z vx vy vz 
0 0.478765 0.490310 -2.820192 -0.264487 -0.113618 -44.796530
1 0.772339 0.760794 4.930848 2.068487 1.917618 45.752530
ITEM: TIMESTEP
76
ITEM: NUMBER OF ATOMS
2
ITEM: BOX BOUNDS pp pp pp
0 10.000000
0 10.000000
0 10.000000
ITEM: ATOMS id x y z vx vy vz 
0 0.478233 0.490082 -2.910386 -0.267483 -0.114655 -45.397739
1 0.776483 0.764634 5.022960 2.075483 1.922655 46.359739
ITEM: TIMESTEP
77
ITEM: NUMBER OF ATOMS
2
ITEM: BOX BOUNDS pp pp pp
0 10.000000
0 10.000000
0 10.000000
ITEM: ATOMS id x y z vx vy vz 
0 0.477695 0.489852 -3.001783 -0.270389 -0.115609 -45.999549
1 0.780641 0.768484 5.116287 2.082389 1.927609 46.967549
ITEM: TIMESTEP
78
ITEM: NUMBER OF ATOMS
2
ITEM: BOX BOUNDS pp pp pp
0 10.000000
0 10.000000
0 10.000000
ITEM: ATOMS id x y z vx vy vz 
0 0.477151 0.489620 -3.094384 -0.273106 -0.116389 -46.602478
1 0.784813 0.772344 5.210830 2.089106 1.932389 47.576478
ITEM: TIMESTEP
79
ITEM: NUMBER OF ATOMS
2
ITEM: BOX BOUNDS pp pp pp
0 10.000000
0 10.000000
0 10.000000
ITEM: ATOMS id x y z vx vy vz 
0 0.476603 0.489386 -3.188194 -0.275407 -0.116787 -47.207584
1 0.788997 0.776214 5.306594 2.095407 1.936787 48.187584
ITEM: TIMESTEP
80
ITEM: NUMBER OF ATOMS
2
ITEM: BOX BOUNDS pp pp pp
0 10.000000
0 10.000000
0 10.000000
ITEM: ATOMS id x y z vx vy vz 
0 0.476050 0.489153 -3.283217 -0.276761 -0.116317 -47.816993
1 0.793194 0.780091 5.403583 2.100761 1.940317 48.802993
ITEM: TIMESTEP
81
ITEM: NUMBER OF ATOMS
2
ITEM: BOX BOUNDS pp pp pp
0 10.000000
0 10.000000
0 10.000000
ITEM: ATOMS id x y z vx vy vz 
0 0.475497 0.488922 -3.379466 -0.276223 -0.114110 -48.433805
1 0.797399 0.783974 5.501810 2.104223 1.942110 49.425805
ITEM: TIMESTEP
82
ITEM: NUMBER OF ATOMS
2
ITEM: BOX BOUNDS pp pp pp
0 10.000000
0 10.000000
0 10.000000
ITEM: ATOMS id x y z vx vy vz 
0 0.474946 0.488697 -3.476954 -0.277272 -0.113357 -49.046898
1 0.801610 0.787859 5.601288 2.109272 1.945357 50.044898
ITEM: TIMESTEP
83
ITEM: NUMBER OF ATOMS
2
ITEM: BOX BOUNDS pp pp pp
0 10.000000
0 10.000000
0 10.000000
ITEM: ATOMS id x y z vx vy vz 
0 0.474356 0.488440 -3.575573 -0.387640 -0.212655 -49.404119
1 0.805868 0.791784 5.701909 2.223640 2.048655 50.408119
ITEM: TIMESTEP
84
ITEM: NUMBER OF ATOMS
2
ITEM: BOX BOUNDS pp pp pp
0 10.000000
0 10.000000
0 10.000000
ITEM: ATOMS id x y z vx vy vz 
0 0.472714 0.487224 -3.673262 -2.726850 -2.350183 -45.913897
1 0.811186 0.796676 5.801612 4.566850 4.190183 46.923897
ITEM: TIMESTEP
85
ITEM: NUMBER OF ATOMS
2
ITEM: BOX BOUNDS pp pp pp
0 10.000000
0 10.000000
0 10.000000
ITEM: ATOMS id x y z vx vy vz 
0 0.453363 0.469821 -3.745880 -25.091760 -22.789183 -17.299223
1 0.834221 0.817763 5.876256 26.935760 24.633183 18.315223
ITEM: TIMESTEP
86
ITEM: NUMBER OF ATOMS
2
ITEM: BOX BOUNDS pp pp pp
0 10.000000
0 10.000000
0 10.000000
ITEM: ATOMS id x y z vx vy vz 
0 0.360850 0.385564 -3.731469 -68.624488 -62.566990 32.674584
1 0.930426 0.905712 5.863883 70.472488 64.414990 -31.652584
ITEM: TIMESTEP
87
ITEM: NUMBER OF ATOMS
2
ITEM: BOX BOUNDS pp pp pp
0 10.000000
0 10.000000
0 10.000000
ITEM: ATOMS id x y z vx vy vz 
0 0.178717 0.219418 -3.615076 -113.508522 -103.578976 83.718269
1 1.116259 1.075558 5.749540 115.360522 105.430976 -82.690269
ITEM: TIMESTEP
88
ITEM: NUMBER OF ATOMS
2
ITEM: BOX BOUNDS pp pp pp
0 10.000000
0 10.000000
0 10.000000
ITEM: ATOMS id x y z vx vy vz 
0 -0.093183 -0.028751 -3.396597 -158.390981 -144.589523 134.760879
1 1.391867 1.327435 5.533123 160.246981 146.445523 -133.726879
ITEM: TIMESTEP
89
ITEM: NUMBER OF ATOMS
2
ITEM: BOX BOUNDS pp pp pp
0 10.000000
0 10.000000
0 10.000000
ITEM: ATOMS id x y z vx vy vz 
0 9.545153 -0.358940 -3.076033 -203.273250 -185.599898 185.803355
1 1.757247 1.661340 5.214633 205.133250 187.459898 -184.763355
ITEM: TIMESTEP
90
ITEM: NUMBER OF ATOMS
2
ITEM: BOX BOUNDS pp pp pp
0 10.000000
0 10.000000
0 10.000000
ITEM: ATOMS id x y z vx vy vz 
0 9.093724 -0.771150 -2.653384 -248.155520 -226.610273 236.845832
1 2.212400 2.077274 4.794070 250.019520 228.474273 -235.799832
ITEM: TIMESTEP
91
ITEM: NUMBER OF ATOMS
2
ITEM: BOX BOUNDS pp pp pp
0 10.000000
0 10.000000
0 10.000000
ITEM: ATOMS id x y z vx vy vz 
0 8.552531 -1.265381 -2.128649 -293.037789 -267.620648 287.888308
1 2.757325 2.575237 4.271433 294.905789 269.488648 -286.836308
ITEM: TIMESTEP
92
ITEM: NUMBER OF ATOMS
2
ITEM: BOX BOUNDS pp pp pp
0 10.000000
0 10.000000
0 10.000000
ITEM: ATOMS id x y z vx vy vz 
0 7.921573 -1.841633 -1.501830 -337.920059 -308.631022 338.930784
1 3.392023 3.155229 3.646724 339.792059 310.503022 -337.872784
ITEM: TIMESTEP
93
ITEM: NUMBER OF ATOMS
2
ITEM: BOX BOUNDS pp pp pp
0 10.000000
0 10.000000
0 10.000000
ITEM: ATOMS id x y z vx vy vz 
0 7.200851 -2.499905 -0.772926 -382.802329 -349.641397 389.973260
1 4.116493 3.817249 2.919942 384.678329 351.517397 -388.909260
ITEM: TIMESTEP
94
ITEM: NUMBER OF ATOMS
2
ITEM: BOX BOUNDS pp pp pp
0 10.000000
0 10.000000
0 10.000000
ITEM: ATOMS id x y z vx vy vz 
0 6.390364 -3.240199 0.058063 -427.684598 -390.651772 441.015737
1 4.930736 4.561299 2.091087 429.564598 392.531772 -439.945737
ITEM: TIMESTEP
95
ITEM: NUMBER OF ATOMS
2
ITEM: BOX BOUNDS pp pp pp
0 10.000000
0 10.000000
0 10.000000
ITEM: ATOMS id x y z vx vy vz 
0 5.490112 -4.062513 0.991137 -474.680809 -428.288394 491.021773
1 5.834752 5.387377 1.160159 476.564809 430.172394 -489.945773
ITEM: TIMESTEP
96
ITEM: NUMBER OF ATOMS
2
ITEM: BOX BOUNDS pp pp pp
0 10.000000
0 10.000000
0 10.000000
ITEM: ATOMS id x y z vx vy vz 
0 4.487414 -4.946604 2.020076 -528.017520 -455.802711 537.917216
1 6.841222 6.275240 0.133378 529.905520 457.690711 -536.835216
ITEM: TIMESTEP
97
ITEM: NUMBER OF ATOMS
2
ITEM: BOX BOUNDS pp pp pp
0 10.000000
0 10.000000
0 10.000000
ITEM: ATOMS id x y z vx vy vz 
0 3.378042 -5.885724 3.142806 -581.353902 -483.316947 584.812451
1 7.954374 7.218140 -0.987182 583.245902 485.208947 -583.724451
ITEM: TIMESTEP
98
ITEM: NUMBER OF ATOMS
2
ITEM: BOX BOUNDS pp pp pp
0 10.000000
0 10.000000
0 10.000000
ITEM: ATOMS id x y z vx vy vz 
0 2.161998 -6.879872 4.359326 -634.690283 -510.831184 631.707686
1 9.174206 8.216076 -2.201520 636.586283 512.727184 -630.613686
ITEM: TIMESTEP
99
ITEM: NUMBER OF ATOMS
2
ITEM: BOX BOUNDS pp pp pp
0 10.000000
0 10.000000
0 10.000000
ITEM: ATOMS id x y z vx vy vz 
0 0.839281 -7.929048 5.669636 -688.026665 -538.345421 678.602920
1 0.500719 9.269048 -3.509636 689.926665 540.245421 -677.502920
