ITEM: TIMESTEP
0
ITEM: NUMBER OF ATOMS
125
ITEM: BOX BOUNDS pp pp pp
0 5.386087
0 5.386087
0 5.386087
ITEM: ATOMS id x y z vx vy vz 
0 5.174969 4.926208 0.518264 -1.428037 -1.781356 1.688507
1 5.275639 5.154081 1.785626 1.413436 -1.142345 -2.382064
2 0.392255 0.543683 2.168385 -0.319748 0.144364 -1.716733
3 1.014583 0.713315 3.788634 -0.709458 2.291651 0.349819
4 0.343988 0.212268 4.757660 0.087644 -0.069093 -2.574765
5 5.229394 0.889545 1.232964 0.018433 -1.477069 1.417731
6 0.095504 1.438443 2.359354 1.408948 1.460844 -0.150600
7 0.069223 1.847264 3.881337 1.823929 0.158150 2.338842
8 0.137873 1.463035 4.758015 0.848138 -0.837884 -0.059694
9 0.954007 2.010379 5.154791 -0.830653 0.105204 -2.754662
10 0.299165 2.510431 0.333401 -2.443928 -2.207911 -2.068073
11 0.313108 2.636515 1.531411 -0.243660 1.508400 1.153232
12 0.919700 2.562247 2.394132 -0.207191 2.471902 1.281261
13 0.974874 2.891754 3.601846 -0.343109 0.538208 -0.698078
14 1.278156 1.969177 4.159569 1.289906 0.667970 -1.012548
15 1.142504 4.088987 0.238605 0.020481 0.461356 1.289530
16 0.877192 3.441361 0.998035 -1.063529 0.629468 2.904168
17 0.845698 3.507926 2.046875 -0.894076 -1.074198 1.060368
18 1.146686 3.748398 3.006912 -0.595132 0.692222 -1.354287
19 0.359765 3.633765 4.952755 0.179564 -0.471190 1.058596
20 0.841964 4.427896 1.074954 1.864075 0.237879 0.919593
21 0.761028 4.999746 2.110670 0.781029 -1.316184 0.696632
22 0.639629 5.303219 3.147973 1.097970 1.651417 1.379238
23 0.183260 4.780483 3.856668 -1.197380 -0.889286 -1.169812
24 0.910035 4.415633 4.470884 0.594004 -2.379300 -2.133808
25 0.617421 1.089304 0.078870 -1.074967 1.333039 -0.151030
26 0.742415 0.221724 0.996406 -1.281164 1.379285 -0.006246
27 1.311309 1.492815 3.312560 -0.904666 0.684914 -0.935251
28 2.310406 0.133220 4.212209 1.583485 -0.864462 -0.430531
29 1.398252 5.265017 4.514397 0.029548 2.287432 -1.269767
30 1.266943 1.963926 0.719197 0.363407 -1.311871 0.398996
31 0.767868 1.712701 1.546025 -0.548577 -0.804492 2.120615
32 1.659535 1.419527 2.405489 1.311677 -1.568747 -0.255110
33 1.690296 1.010135 4.754329 0.346935 -0.891734 -1.641520
34 2.220513 1.792514 5.039956 1.087473 -0.127024 -1.247429
35 1.222763 3.012473 5.219235 0.799594 -1.037247 1.722198
36 1.697341 2.484708 1.678249 0.582755 1.077988 -0.031073
37 2.009265 3.430529 2.428596 -1.533058 0.579037 -2.321551
38 1.663510 2.277338 3.110620 0.344267 0.887069 -0.692753
39 2.223009 2.221056 4.190007 -1.758626 -1.179490 -0.606616
40 2.008731 3.753013 0.000779 0.840803 -0.396599 0.429154
41 1.763405 2.945146 0.789345 -0.079910 -0.739700 -1.064260
42 2.079767 4.457985 2.362429 -1.411015 2.066535 1.442606
43 2.183829 3.206457 3.661726 0.153635 -0.672000 -0.537169
44 1.360259 3.446482 4.362959 -0.750176 0.947777 -0.594106
45 0.807915 5.071608 0.093502 -0.537048 -0.773231 -0.993435
46 1.605081 0.012297 1.814936 -0.247370 3.272466 -1.831009
47 1.550675 0.414933 2.706513 -0.362589 -0.269357 -0.114258
48 1.500697 4.683122 3.457828 0.932353 -1.268442 -0.070353
49 2.094243 4.309636 4.308575 -1.054932 -1.620542 -2.172459
50 2.146644 5.071708 5.138479 1.214820 -0.844715 0.426708
51 2.491282 0.570283 1.484339 -0.181337 0.151607 0.829289
52 2.678926 0.792167 2.717719 2.986425 -0.610651 -0.116254
53 3.137115 1.429247 3.412062 0.266220 -1.078455 1.107862
54 2.755534 0.827520 4.968609 0.851852 1.507161 1.895367
55 1.899850 0.947778 0.410270 -0.251366 0.555012 1.345434
56 1.743600 1.398396 1.360670 0.483090 0.291136 -0.688368
57 2.581095 2.086364 2.581347 0.652574 -0.491648 -0.312536
58 2.204662 1.153580 3.724975 -1.344851 0.006554 -0.344406
59 3.116706 1.606924 4.348113 -3.595675 1.074894 0.450449
60 2.386231 2.029464 0.696079 -1.791716 0.254881 1.094455
61 2.712523 2.746941 1.750860 0.284922 0.961189 -0.477627
62 2.825860 3.055084 2.866843 0.478926 -0.469153 -1.079645
63 3.219280 2.404089 3.601825 1.069259 -1.045161 -1.205825
64 2.205974 2.721652 5.227645 0.815718 -1.917262 0.889054
65 2.724898 3.285856 0.922135 1.853730 0.541911 1.128492
66 2.197653 3.912724 1.487131 1.632368 0.141460 0.661950
67 3.244941 4.778003 2.512051 0.514558 -1.147612 -0.944595
68 3.186089 3.329600 4.286482 1.448549 0.820723 -0.560076
69 3.057785 4.620854 4.926834 -1.788230 1.083280 1.111428
70 1.947275 4.539613 0.771220 -2.369262 -0.550384 0.465676
71 2.704566 4.984322 1.381655 0.975782 0.512044 -1.632174
72 2.427701 5.154893 3.120673 -0.594822 -1.827824 -1.362457
73 2.747550 4.240761 3.622554 -0.042127 -0.658670 1.227132
74 3.676102 0.312289 4.721167 0.146133 0.321222 -0.365066
75 3.151735 5.361781 0.418531 0.462274 2.490402 -0.045925
76 3.612983 0.704588 1.728866 -0.169100 0.451317 -1.926118
77 3.592313 0.144748 2.846674 -0.781569 -0.598577 0.555318
78 3.997961 0.665702 3.732769 1.693685 -0.940154 0.636181
79 3.720574 1.417370 5.133686 0.617067 1.913657 -1.355886
80 3.933176 1.633843 0.976100 0.744532 0.710493 0.382144
81 3.005228 1.546326 1.429354 -0.629993 -1.306884 -1.244931
82 3.943949 1.818585 2.674345 -0.116941 -0.576133 0.742997
83 4.239162 1.992335 3.845791 1.343044 0.139521 -0.843008
84 4.867274 2.233264 4.938140 -0.257792 0.825858 -0.743375
85 3.329535 2.610327 0.197082 0.583358 0.240404 0.470809
86 3.733862 3.084845 1.174069 0.201315 0.724620 -0.135827
87 3.703927 2.793650 2.502109 -0.708772 1.733112 0.489692
88 4.043693 3.303200 3.370614 0.192831 0.070141 -0.609797
89 3.800414 2.367768 4.632637 -0.715894 0.060659 0.710284
90 3.243022 4.109474 0.998639 -1.496361 -3.289739 2.685970
91 3.228205 3.790007 2.036594 -0.121586 0.186913 1.430158
92 4.359702 3.908756 2.571915 -1.626297 -2.401233 1.016159
93 4.829685 4.079584 3.705626 0.270608 1.715393 -2.139118
94 3.142942 3.692911 5.324752 1.177159 -0.075310 0.571292
95 4.266974 5.102415 1.436436 -1.548627 -1.087016 -0.955938
96 4.473882 4.864769 2.493543 -0.547944 2.566311 1.460617
97 3.759448 4.279225 3.613931 -0.599210 -0.636784 0.161414
98 3.248233 5.224216 3.729578 -0.206760 2.154994 -0.033116
99 3.911769 4.411923 4.550805 -0.595112 0.302847 -1.330679
100 4.281429 0.581308 0.858418 1.024229 -0.467143 0.160376
101 4.449904 1.238032 1.909277 0.036568 0.711328 1.304686
102 4.713690 0.501285 2.563062 -0.256389 1.879602 -1.077348
103 5.104976 0.634447 3.937247 1.024578 0.632829 1.330492
104 4.701747 0.375823 5.299790 1.897632 -0.066486 3.008258
105 4.740670 2.448696 0.824735 -1.973450 0.750527 0.045429
106 4.334341 2.313768 1.830471 1.124978 -1.986481 -1.251515
107 4.820549 1.393990 3.170710 1.019992 -1.273557 -1.246349
108 4.527352 1.269546 4.575097 0.477106 -1.511406 1.355993
109 5.008047 1.366731 0.243393 -1.485852 -0.335397 0.172544
110 4.182797 3.627883 0.254870 0.069792 -0.104020 -0.241598
111 4.741553 3.296911 1.710804 -1.203788 1.115862 -1.061733
112 5.118541 2.374985 2.576259 1.222519 0.230692 -1.076262
113 4.933196 2.812236 3.624901 -1.082030 0.207013 0.546584
114 0.344954 2.755996 4.534340 0.909312 1.110026 1.080292
115 5.112327 3.872066 0.619420 -0.084471 -0.073828 1.160549
116 4.253658 4.069655 1.187788 -0.743622 -1.034720 -0.675286
117 0.172357 3.428612 2.916026 -0.900293 -2.292643 2.907616
118 0.237345 3.468833 3.868160 -0.244255 -0.524517 -0.088334
119 4.759133 3.441300 4.478665 -0.740007 -0.335512 -1.262720
120 4.337611 4.710746 5.367983 -1.870539 -0.054085 -1.221518
121 0.024290 4.121739 1.693562 -0.334859 0.388594 1.480007
122 5.370128 4.401054 2.866522 3.006242 -0.020904 0.031978
123 4.714227 5.237021 3.498919 0.722919 -0.871685 1.910173
124 5.164377 4.574781 4.793390 -0.479259 0.605737 0.604063
ITEM: TIMESTEP
1
ITEM: NUMBER OF ATOMS
125
ITEM: BOX BOUNDS pp pp pp
0 5.386087
0 5.386087
0 5.386087
ITEM: ATOMS id x y z vx vy vz 
0 5.026031 4.789565 0.648327 -1.867117 -1.624976 -1.867233
1 5.276846 5.143626 1.514643 0.325172 1.345831 0.809710
2 0.506309 0.503078 2.068202 2.182726 -0.815418 0.543485
3 0.825053 0.846882 4.010447 -1.730926 2.598299 1.394588
4 0.370581 0.131890 4.554855 -0.382998 -1.982536 0.133989
5 5.177150 0.802525 1.357596 -1.320600 0.593074 0.523888
6 0.173280 1.540533 2.478155 0.709910 -0.390016 1.430480
7 0.246112 2.041731 3.793254 0.182427 1.753161 -2.311136
8 0.167099 1.291173 4.765848 0.712983 -1.419742 0.919300
9 0.965413 1.914944 5.017831 1.020922 -2.262553 1.199269
10 0.044733 2.283965 0.180299 -1.130939 -1.847705 -0.245361
11 0.192787 2.759560 1.649181 -1.227202 0.291107 0.459535
12 0.876892 2.587092 2.602133 -0.655671 -1.548682 -0.164971
13 0.948232 2.856821 3.508228 -0.674266 0.340276 0.533993
14 1.188412 2.008997 3.958497 0.230631 -0.321984 -2.529734
15 1.103605 4.015218 0.200916 1.108847 -0.788713 0.183364
16 0.774474 3.447519 1.093970 -0.158072 0.388904 -1.525927
17 0.718734 3.595386 2.144979 -0.576151 0.833273 1.068805
18 1.123249 3.864102 2.997745 0.142632 0.227184 1.277230
19 0.297876 3.704955 5.150589 -2.358207 0.082113 0.934401
20 0.913740 4.643254 1.352317 -0.631059 1.752578 1.110568
21 0.977257 4.781231 2.289005 0.772526 0.314570 1.682639
22 0.717884 0.096891 3.253977 -0.635405 0.688676 1.002897
23 0.216468 4.740358 3.829497 -0.607960 0.928776 -0.927589
24 0.926430 4.350613 4.322820 1.480281 0.913468 0.926169
25 0.702314 1.056992 0.378254 1.059286 -0.168782 2.566294
26 0.637863 0.330050 1.000857 -0.188457 -0.407919 -0.056400
27 1.051569 1.494955 3.048411 -2.444771 0.335025 -2.948639
28 2.385994 0.091067 4.211443 -1.134971 0.017965 0.934223
29 1.335824 0.000175 4.346855 0.055703 -2.314024 -1.521163
30 1.197564 1.934612 0.611936 -1.002106 0.298091 -1.037374
31 0.854440 1.631346 1.642105 2.147114 -0.404004 -0.816354
32 1.887703 1.280773 2.375225 2.162495 -1.007642 1.627882
33 1.690703 0.924908 4.585129 0.447932 0.723541 0.119732
34 2.144606 1.638136 5.204496 -2.567010 -0.009809 2.531720
35 1.145814 2.935099 5.339552 -1.793581 -0.253684 -0.361836
36 1.707309 2.525186 1.752623 -0.319880 -0.724766 0.864619
37 1.756239 3.391726 2.243005 -2.365051 -0.597824 -0.435639
38 1.910466 2.598677 2.929960 1.767975 1.496206 -2.377445
39 2.237942 2.306243 3.899981 0.210442 0.544405 -2.732991
40 2.213848 3.719915 0.015485 1.180703 0.380474 0.090016
41 1.747865 2.968372 0.810227 -1.074205 1.250138 1.830479
42 1.821578 4.581971 2.355749 0.136205 -0.638522 -1.039921
43 2.169266 3.247639 3.670843 -0.189157 3.020353 0.988874
44 1.349214 3.280062 4.306003 -0.073989 -3.676945 0.352299
45 0.740352 5.008874 5.371574 -0.678178 -0.190740 -0.752314
46 1.524117 0.339177 1.491184 -1.676533 2.101854 -2.569827
47 1.558775 0.377416 2.790205 1.240673 -0.296958 0.346541
48 1.556971 4.616169 3.431078 0.333802 0.975502 -0.142751
49 1.906983 4.189114 4.339207 0.032994 -0.303357 1.609669
50 1.984538 5.103359 5.320681 -2.895929 1.128690 1.582486
51 2.538763 0.618217 1.608257 1.074803 -0.744626 1.372873
52 2.850059 0.726801 2.577955 -0.508330 -0.155303 -2.198642
53 3.270930 1.225114 3.439403 1.423178 -1.793569 0.740268
54 2.876521 0.863188 5.210409 0.739543 0.218654 0.871545
55 1.882955 0.966654 0.461227 -0.278791 -0.742539 -0.187325
56 1.861044 1.373649 1.399479 0.204897 0.244285 -0.403373
57 2.692937 1.940381 2.544232 1.372501 -1.602932 -0.194759
58 2.047734 1.143024 3.673542 -0.952007 0.117767 -1.327483
59 2.952955 1.693160 4.364275 1.194615 -0.121266 -0.517836
60 2.259399 2.076710 0.796877 -0.156208 0.584832 0.250339
61 2.794931 2.771280 1.854028 0.557174 -0.779075 0.657004
62 2.718577 3.094340 2.828821 -1.187033 0.349157 0.662508
63 3.357987 2.385044 3.485693 0.843163 -0.044761 -0.820299
64 2.405003 2.701050 5.283438 1.845428 -0.252709 -0.791545
65 2.713143 3.052022 0.745773 -0.543977 -1.242196 -0.820246
66 2.349505 3.969087 1.576029 0.236824 0.716771 0.495646
67 3.212876 4.643723 2.379891 -0.280566 0.815180 -0.519234
68 3.356131 3.434552 4.207932 0.909478 1.102201 -0.127781
69 3.062203 4.684017 4.983773 1.212376 0.197781 0.089261
70 1.789268 4.581621 0.785500 0.030005 0.630016 0.197686
71 2.812522 5.002008 1.218620 0.290732 1.083301 -1.138624
72 2.481797 5.144564 3.125972 1.523942 1.203771 1.159032
73 2.752269 4.129439 3.583440 -0.860898 -0.939767 -0.676012
74 3.705273 0.329057 4.724448 0.372345 0.051732 0.649901
75 3.232786 0.252078 0.418692 1.572918 0.967298 1.199086
76 3.564887 0.674644 1.549217 -0.531597 -0.657538 -0.661965
77 3.756180 0.321724 2.880961 2.192789 1.890649 0.131739
78 4.197050 0.652544 3.787026 1.270851 1.265137 0.289623
79 3.710565 1.568390 5.174419 -0.353293 0.675345 1.363555
80 4.020296 1.670306 0.966663 0.104454 -0.359431 -0.455153
81 2.920346 1.507038 1.305544 0.047833 1.076363 -1.024577
82 3.900983 1.747454 2.804761 -0.359532 -0.344935 0.758384
83 4.344024 1.890536 3.739826 -0.250128 -1.918287 0.068788
84 4.758409 2.336529 4.787248 -1.727580 0.603301 -2.274167
85 3.421191 2.594605 0.276714 2.063317 -1.268775 0.249199
86 3.774930 3.092346 1.191989 -0.532311 -0.358225 0.423571
87 3.824543 2.865587 2.393658 1.888068 -2.107333 -1.367881
88 3.963438 3.185114 3.509390 -0.866442 -1.478601 1.666607
89 3.707972 2.524082 4.652772 -0.663743 2.165044 -0.895584
90 3.256495 4.124349 1.252384 1.046762 0.502188 0.997841
91 3.213968 3.575698 2.158639 0.095473 -1.715453 -0.045586
92 4.247711 3.749510 2.529496 0.115226 0.540137 -1.254376
93 4.716957 4.131039 3.406476 -0.109972 -1.046366 -2.464156
94 3.217767 3.658327 0.006959 0.124792 -0.155116 0.264632
95 4.059837 5.014002 1.369108 -1.958896 0.388153 -0.081954
96 4.392974 5.014543 2.622741 -0.490411 -1.810662 0.442895
97 3.759870 4.263617 3.296436 -0.392703 0.762455 -3.930688
98 3.373813 5.364555 3.807134 2.577084 0.108254 0.145962
99 3.909819 4.379473 4.423493 0.319072 -0.582115 -1.192571
100 4.314566 0.583499 0.908648 -0.259315 0.115803 0.006689
101 4.471071 1.305400 1.939268 -0.091604 -0.347035 -0.482202
102 4.779364 0.541227 2.502128 1.673967 -0.716981 -0.374222
103 5.226595 0.811636 3.919868 0.250133 1.557449 -2.322006
104 5.003946 0.291835 0.102960 3.114216 -1.011207 0.414529
105 4.529267 2.595089 0.737520 -1.083566 1.761017 -2.083620
106 4.442893 2.314033 1.732376 0.544726 2.375047 -0.045309
107 4.911527 1.324750 3.160889 0.091311 0.220530 1.280022
108 4.534465 1.064850 4.696082 -1.091992 -1.636911 1.264753
109 4.783944 1.408287 0.331487 -1.721707 0.796019 0.837354
110 4.227951 3.550579 0.152361 1.405088 -1.024136 -1.002827
111 4.680554 3.283463 1.662836 0.371662 -0.923537 0.333578
112 5.134215 2.453508 2.449234 -1.999698 -0.778643 -1.397342
113 4.893194 2.748234 3.665532 0.920232 -0.381725 0.584894
114 0.433561 2.706100 4.599868 -0.036546 0.407215 -0.345826
115 5.217527 3.745401 0.759926 1.233327 -1.957927 1.202057
116 4.230954 4.069536 1.124734 1.329806 0.215430 -1.084387
117 0.073228 3.224524 2.974026 0.433179 1.717494 0.874469
118 0.254263 3.683205 4.100619 -0.463971 1.610027 1.587392
119 4.601705 3.418070 4.451321 -1.745816 0.149949 0.390441
120 4.100666 4.787775 0.083267 -1.988858 0.992053 1.820075
121 5.342031 4.107352 1.855877 -1.731143 0.256228 0.679641
122 0.305773 4.418516 2.814870 0.423416 -0.715957 0.921383
123 4.630401 5.157376 3.655429 -1.101138 -0.464921 1.303541
124 5.154578 4.629375 4.863161 -0.004929 0.420299 0.646258
ITEM: TIMESTEP
2
ITEM: NUMBER OF ATOMS
125
ITEM: BOX BOUNDS pp pp pp
0 5.386087
0 5.386087
0 5.386087
ITEM: ATOMS id x y z vx vy vz 
0 4.918803 4.609521 0.429169 0.676646 -0.327873 -1.203507
1 5.230027 5.233021 1.724707 -1.060741 0.119784 1.980133
2 0.760677 0.515755 2.145749 1.544282 2.482702 0.021116
3 0.875374 1.175465 4.095878 0.647076 1.368943 0.245262
4 0.252111 0.064361 4.522467 -0.274856 1.045957 -0.158449
5 5.201567 0.918689 1.399172 1.199447 1.068353 0.018839
6 0.083168 1.464571 2.245557 -1.199758 -0.799434 -4.013545
7 0.253959 2.021908 3.461781 0.532752 -1.563138 -3.047984
8 0.146720 1.124737 4.980895 -1.024126 -1.517828 2.235229
9 1.048375 1.665651 4.939907 -0.749164 -1.254194 -1.586110
10 0.023282 2.115535 0.134277 1.042001 -0.567720 -0.796418
11 0.230964 2.764932 1.569114 1.038287 -0.467392 -0.947953
12 0.757346 2.376294 2.424517 -1.414080 -1.433446 -1.703056
13 0.817652 2.932221 3.529206 -0.441034 -0.774295 0.827277
14 1.389568 1.922212 3.781258 1.981554 0.982487 -0.859501
15 1.274011 3.963863 0.186110 0.618677 0.070617 -0.655758
16 0.777481 3.538688 1.016308 -0.807938 1.789474 0.526787
17 0.580509 3.641888 2.161975 -2.121141 0.589145 -0.681329
18 1.208798 3.797454 3.226410 1.023458 0.285539 1.640486
19 5.369120 3.661288 5.253001 -1.984290 -0.619723 0.528745
20 0.819556 4.716864 1.349325 -0.333545 -1.313134 0.466668
21 0.889948 5.000581 2.528848 -0.004503 0.028031 2.576199
22 0.643646 0.225718 3.354313 -0.172788 1.700163 0.630017
23 0.074202 4.808780 3.791392 -0.951518 -0.303865 0.574622
24 0.958839 4.332881 4.559508 -0.964102 -1.589911 2.393724
25 0.783744 1.120798 0.513703 0.351917 0.411671 0.738044
26 0.461950 0.161276 0.917737 -1.600996 -0.200023 -1.382377
27 1.122540 1.476439 2.898027 1.740280 -0.725877 -0.570964
28 2.358717 0.104390 4.330949 0.933110 0.223875 1.078334
29 1.347455 5.304819 4.196171 -0.838147 1.941854 0.041453
30 1.180866 2.128568 0.704663 0.165340 2.441993 1.523421
31 0.939301 1.593028 1.611495 -1.022942 -0.586623 0.332589
32 2.022864 1.247026 2.525185 0.267125 0.644243 -0.925860
33 1.749515 0.971831 4.665858 0.919218 -0.258891 0.698932
34 1.943389 1.807308 5.331478 -0.278773 1.332195 0.434374
35 0.952445 2.899463 0.042443 -1.815389 -0.332740 1.973700
36 1.661868 2.290301 1.777623 -0.385240 -2.079439 -1.234709
37 1.610541 3.441592 2.194945 0.093147 0.683134 -0.605272
38 1.801097 2.495351 2.727837 -1.253076 -1.527008 -0.067298
39 2.313648 2.299163 3.613962 1.149474 0.010109 -2.034460
40 2.228893 3.789527 0.060724 0.737541 -0.019180 1.347017
41 1.687479 3.090298 0.986277 2.032429 0.071652 1.154761
42 2.199252 4.503739 2.424669 2.514445 0.295882 2.493187
43 1.983332 3.479227 3.803541 -2.175499 0.305389 0.514634
44 1.440032 2.927371 4.508759 1.435317 -2.756159 1.740100
45 0.711580 4.918795 0.021477 -0.102320 -1.379237 1.046029
46 1.441111 0.517664 1.340918 -1.553771 0.269707 0.612789
47 1.714321 0.259382 2.833610 1.068364 -1.334243 0.329347
48 1.673599 4.811294 3.383507 1.632349 0.562844 -1.787383
49 2.114983 4.178182 4.557447 2.317281 0.976958 1.469443
50 1.653543 5.298656 5.365359 -2.557542 1.084668 -0.760050
51 2.424199 0.505375 1.552965 -1.958128 -0.021802 -0.648724
52 2.946856 0.709124 2.605636 1.935246 -0.515129 1.279739
53 3.328236 1.018651 3.545522 -1.134951 -1.184574 0.778494
54 2.822485 1.013398 5.163661 -1.071732 1.135854 -0.536407
55 1.827056 0.707614 0.462611 0.422407 -1.181267 -1.177476
56 1.977012 1.417776 1.380147 2.181926 0.495658 -0.040411
57 2.939165 1.791090 2.559261 2.069286 -0.881725 0.227107
58 1.962832 1.159405 3.476599 -0.272952 -0.439445 -0.295269
59 3.094228 1.690492 4.337452 1.119460 0.265332 0.022586
60 2.221762 2.243816 0.795157 -0.108722 1.792590 0.519168
61 2.774675 2.528946 1.806586 -0.360906 -1.994236 -0.729657
62 2.851153 3.240571 3.019637 1.598578 1.162108 2.018523
63 3.299019 2.267620 3.418671 -0.842235 -1.114452 -0.199957
64 2.595303 2.621008 5.028874 1.777035 -0.461426 -2.380441
65 2.761340 3.099058 0.852103 0.446774 1.579764 0.840360
66 2.351223 3.914375 1.501274 0.623449 -1.889256 -2.118974
67 3.127223 4.801149 2.206121 -1.042037 2.104120 -2.805329
68 3.236304 3.675617 4.328310 -2.258625 2.357521 0.974455
69 3.134373 4.725470 4.974728 -0.202310 0.196624 -0.653288
70 1.833692 4.607202 0.918037 0.405899 0.193264 1.305044
71 2.782293 5.071580 1.106764 -0.540118 -1.369936 -0.926069
72 2.674898 5.289357 3.249827 1.641375 1.175204 0.899219
73 2.765184 4.243350 3.457748 -0.325402 2.074483 -0.711773
74 3.697004 0.276068 4.867104 -0.904942 -1.139962 1.404934
75 3.456146 0.286719 0.626016 -0.829384 1.612715 0.506227
76 3.532461 0.649700 1.592625 -0.105142 0.831670 1.398467
77 3.988082 0.575248 2.822404 2.214956 1.724010 -1.351988
78 4.278357 0.830468 3.821858 0.785047 -0.020129 0.565657
79 3.710250 1.569977 5.299880 0.423281 -1.743909 0.013472
80 3.886829 1.642153 0.986332 -1.094193 -1.164184 -0.686968
81 2.993671 1.610208 1.252587 -0.741937 0.513205 0.403125
82 3.888445 1.676653 2.766520 -0.606574 -1.145210 -0.580185
83 4.149591 1.794837 3.953353 -2.828445 0.273127 1.791481
84 4.610253 2.371137 4.576814 -0.289147 0.259193 0.273015
85 3.628623 2.481899 0.309532 -0.336940 0.818334 0.642782
86 3.642301 3.080090 1.291392 -0.291452 -0.168627 1.142427
87 3.923773 2.618896 2.428497 -0.220106 -0.827229 0.971276
88 4.029099 3.133391 3.502658 -0.464129 0.540432 -1.022155
89 3.609485 2.709990 4.523894 -1.114764 0.729837 -0.963022
90 3.417281 4.169737 1.267638 0.925322 0.682677 -1.017105
91 3.322169 3.644003 2.129786 0.386034 0.484565 0.406283
92 4.265150 3.831833 2.340091 -0.674626 0.463343 -0.690169
93 4.693497 3.960477 3.297319 -2.552241 -1.594102 1.270197
94 3.341721 3.625917 0.024528 1.400376 -0.397816 0.205442
95 3.832281 5.084215 1.386939 -1.118208 -0.001532 0.466584
96 4.441738 4.753995 2.589296 1.666661 -0.349196 -0.836767
97 3.593927 4.333902 3.025373 -0.793093 -0.256280 -0.564359
98 3.594628 5.314925 3.785642 -0.130676 -0.232286 -0.356743
99 4.009575 4.375410 4.261054 0.930065 0.534316 -1.134806
100 4.370247 0.566295 0.767125 2.850233 0.181437 -1.136050
101 4.345534 1.333648 1.942475 -1.457296 0.105037 0.506486
102 5.049946 0.428011 2.469591 2.313548 -0.577600 0.288669
103 5.282516 0.728624 3.886796 0.743220 -1.231889 0.156985
104 5.368739 0.246999 0.128413 1.936965 0.260451 -0.333995
105 4.587043 2.687341 0.533031 2.772436 -0.593495 -0.395889
106 4.457075 2.260512 1.425609 1.212715 -0.495539 -2.757568
107 4.769206 1.447588 3.022550 -0.988744 0.624909 -1.150500
108 4.491782 0.938444 4.883494 0.557598 -0.597222 1.255894
109 4.700944 1.421432 0.330438 -0.208040 -0.322023 0.048411
110 4.408331 3.550972 0.028208 0.897210 1.996229 -0.562528
111 4.714189 3.308760 1.663699 -0.018993 -1.749591 -0.420392
112 4.911877 2.370291 2.612367 -1.463150 -0.211395 2.292650
113 4.938607 2.835733 3.746283 1.318544 1.320283 0.239966
114 0.314932 2.723850 4.499787 -1.678374 -0.186195 -1.075844
115 5.207076 3.505659 0.857626 -0.632996 -2.293757 -0.194541
116 4.382022 4.025267 1.017599 -1.010850 -0.671983 0.205978
117 0.108783 3.371872 3.046951 -0.562355 -1.469843 0.145398
118 0.109853 3.781913 4.160882 -1.552387 0.497510 -0.236794
119 4.411166 3.448030 4.442286 -1.119331 0.135472 -1.372517
120 3.867892 4.870049 0.288742 -0.838772 -0.746982 1.477653
121 5.072930 4.271604 1.895064 -1.627370 2.190541 0.320216
122 0.206337 4.359003 2.895241 0.792091 1.893789 -1.608480
123 4.500022 5.061583 3.805242 0.198404 -0.538940 0.767053
124 5.102758 4.634678 4.882718 -0.747598 -0.481440 -1.529556
ITEM: TIMESTEP
3
ITEM: NUMBER OF ATOMS
125
ITEM: BOX BOUNDS pp pp pp
0 5.386087
0 5.386087
0 5.386087
ITEM: ATOMS id x y z vx vy vz 
0 5.022439 4.594557 0.434469 -0.033666 -0.599175 0.742383
1 5.165316 5.340673 1.715526 -1.067182 1.308914 0.026709
2 0.799974 0.785142 2.296918 -1.110835 -0.173427 1.367416
3 0.861787 1.128518 3.927642 0.371574 0.303483 -1.248063
4 0.383013 0.090409 4.537373 0.517283 -0.326900 -0.066872
5 5.318721 0.931594 1.159157 1.407841 1.284617 -1.929493
6 5.292758 1.570846 2.132552 -2.176213 1.370508 0.525546
7 0.341310 1.835585 3.146452 0.899749 -1.095261 -1.201681
8 0.111588 1.184063 5.076908 -0.249779 0.310167 -0.388794
9 0.966027 1.714089 4.944824 1.481430 0.595743 -0.475131
10 0.256265 2.091362 0.016002 1.547681 0.810290 0.077404
11 0.354882 2.678819 1.392094 0.846687 -0.691693 -1.991771
12 0.619828 2.239299 2.300350 -0.131778 -0.209074 -0.775178
13 0.835369 2.800097 3.680417 -0.974711 0.599656 0.733672
14 1.480980 2.097001 3.768780 0.562409 -0.754031 0.742898
15 1.307312 3.939802 0.201766 0.993249 -0.806738 1.109472
16 0.816030 3.698412 1.086598 0.870068 -0.720902 -0.307123
17 0.374124 3.689312 2.014864 -0.481116 -0.342154 -1.619342
18 1.131469 3.953826 3.239138 -1.955612 1.190898 -0.699730
19 0.087051 3.612986 5.141049 1.436644 -0.013851 -1.624543
20 0.770606 4.588599 1.480625 -0.673513 0.867668 2.212794
21 1.075407 5.074852 2.695129 1.625317 0.371892 0.171904
22 0.741662 0.387166 3.337932 1.418665 0.409872 -1.382106
23 0.250091 4.710331 3.766662 3.334207 -0.469316 -1.184979
24 0.815229 4.149127 4.668445 -1.564151 -1.198316 -0.829080
25 0.826157 1.179703 0.597239 0.337653 0.527808 0.084850
26 0.460053 0.090584 1.013599 0.227384 -1.870512 -0.433444
27 1.182497 1.418710 2.862694 1.411603 0.647020 1.223588
28 2.520135 0.109249 4.451037 1.542099 -0.107060 0.767178
29 1.272831 0.167426 4.193303 1.268567 2.079672 -1.327226
30 1.146693 2.301007 0.874986 -0.921229 0.541336 -0.058935
31 0.854958 1.485028 1.542827 -0.203332 -0.180050 -1.369109
32 2.068579 1.256233 2.234104 -1.380899 -1.324515 -2.267331
33 1.828204 0.903056 4.709983 -0.795472 -0.507407 -0.320958
34 1.942019 1.910448 5.330681 0.169617 0.127770 0.022747
35 0.685614 2.978078 0.214785 -1.976242 1.572848 1.166683
36 1.625733 2.283938 1.738780 0.283346 1.155883 1.618312
37 1.627120 3.508213 2.124914 -0.025103 0.492901 -0.355637
38 1.614591 2.338233 2.741502 -1.779939 -0.956291 -0.075436
39 2.427088 2.378969 3.453057 0.885208 1.286280 -0.900298
40 2.392860 3.777317 0.269233 0.159451 1.268542 0.720803
41 1.729357 3.212936 1.127330 -1.149542 0.765347 0.566601
42 2.419035 4.461626 2.571029 1.829062 -0.828758 -0.977189
43 1.929178 3.421925 3.957658 0.435823 -0.852510 1.730884
44 1.599201 2.572308 4.719549 0.966030 -2.534018 1.579937
45 0.555232 4.702599 0.225538 -1.265840 -1.704649 2.028342
46 1.267398 0.523102 1.315837 0.315534 0.214960 -0.524690
47 1.865170 0.351781 2.731848 1.414379 2.018466 -1.554221
48 1.734792 4.749104 3.398683 -1.481587 0.511949 1.790559
49 2.203270 4.403655 4.639179 -2.960948 2.477408 0.510366
50 1.427097 5.268216 5.126124 -1.248914 -0.583477 -1.596282
51 2.357162 0.406606 1.562872 0.316020 -1.645052 0.460539
52 3.129178 0.665206 2.625304 0.827678 -0.059472 0.396295
53 3.165257 0.930179 3.680841 -1.334407 -0.214317 1.525586
54 2.700084 1.103841 5.144763 0.037931 0.334847 0.787829
55 1.976396 0.817806 0.408852 1.158388 1.176031 -0.067519
56 1.894235 1.339648 1.263719 -2.754813 -0.807279 -2.505083
57 2.860721 1.775377 2.488423 0.028914 1.010148 -0.087774
58 2.011439 1.010901 3.577361 0.621678 -1.360121 1.157202
59 2.985655 1.726087 4.440240 -2.561446 0.128702 0.835650
60 2.344892 2.308488 0.835567 1.249856 -0.341143 -0.174522
61 2.695341 2.494898 1.787955 -0.863137 1.891958 0.521128
62 2.965482 3.375515 3.270685 -1.583945 1.731729 1.872391
63 3.410085 2.240751 3.380378 0.734822 0.674479 -0.434618
64 2.685157 2.576969 4.827348 -1.106969 0.042687 -0.394674
65 2.949636 3.148853 0.814303 2.439954 -1.347735 0.831963
66 2.408049 3.905920 1.473347 -0.051881 2.098530 1.788653
67 3.022889 5.086178 1.955403 -1.441998 2.397989 -0.635146
68 3.032762 3.845922 4.377252 0.105453 -0.993309 -0.408962
69 3.114990 4.725691 4.897514 1.031890 0.290150 0.232694
70 1.743080 4.623879 1.012059 -1.872637 -0.057359 0.401904
71 2.757179 4.931692 0.947083 -0.307160 0.319115 -2.273064
72 2.652396 0.037835 3.286154 -1.901456 0.732376 0.104491
73 2.632803 4.367678 3.630169 0.784571 -0.238832 3.333645
74 3.595096 0.193504 5.022324 -0.441969 0.286036 1.235431
75 3.259830 0.595142 0.627687 -1.801773 2.660665 -0.027982
76 3.466142 0.775881 1.752107 -0.712569 0.586083 -0.328821
77 4.262490 0.613153 2.659113 1.877401 -1.690610 -1.307878
78 4.251305 0.754218 3.865452 -1.967395 -0.034537 -0.028989
79 3.737817 1.369578 5.217517 -0.076930 -1.321209 -1.438928
80 3.879372 1.388719 0.858049 0.700387 -2.433194 -0.461752
81 3.029234 1.588483 1.304432 1.095648 -0.911407 0.335067
82 3.860376 1.551925 2.882402 0.434376 -1.193917 1.183392
83 4.035844 1.809265 4.053329 2.032376 -0.463065 0.874933
84 4.623522 2.432122 4.769207 -0.347411 0.244649 0.813244
85 3.558537 2.598962 0.382277 0.341801 -0.135124 0.061851
86 3.752637 3.021527 1.457316 0.879972 -0.612488 1.291585
87 3.793119 2.648362 2.456247 -1.620957 0.425111 -0.711620
88 3.869786 3.076846 3.354133 0.955914 -0.930060 -0.586575
89 3.573577 2.792644 4.346868 0.742488 0.608487 -2.224102
90 3.293751 4.126014 1.137972 -0.720167 -1.832635 -0.841232
91 3.117640 3.660225 2.183281 -2.529240 -0.042934 0.435890
92 4.246311 3.765721 2.343604 0.114474 -1.218903 0.401441
93 4.500497 3.942732 3.460687 -0.383938 1.174775 0.573869
94 3.375143 3.582915 0.046060 -0.993732 0.034294 -0.636777
95 3.935674 5.162763 1.396066 2.543140 1.198135 -0.624261
96 4.599743 4.976743 2.650751 0.795355 2.691556 1.171335
97 3.637855 4.344332 2.938933 -0.149102 0.677978 -0.129907
98 3.572595 5.310907 3.859419 0.601040 -0.293779 1.649833
99 3.944592 4.383091 4.242109 -1.218263 0.701763 0.240890
100 4.625589 0.409928 0.679439 -0.918252 -2.227692 -0.204186
101 4.327891 1.329402 1.862643 0.952485 0.336708 -1.253726
102 5.317844 0.527291 2.752381 2.648610 0.141381 2.591524
103 5.271125 0.797939 3.826345 -0.356476 1.303276 -0.343553
104 5.240744 0.107169 0.064704 -1.191317 -2.329594 -0.419751
105 4.797408 2.558206 0.267905 0.270821 -0.873108 -1.980446
106 4.657986 2.124260 1.320823 1.695353 -2.478134 -0.728953
107 4.897605 1.323803 3.060223 0.764560 -0.754687 1.404147
108 4.522307 0.754098 4.892732 0.336881 -2.142445 -0.204691
109 4.793327 1.570165 0.402942 1.502483 1.515519 0.516678
110 4.370203 3.822932 0.045237 0.960421 2.390367 -0.338869
111 4.704734 3.041835 1.782628 0.938276 -1.357080 2.045103
112 4.831305 2.462523 2.829391 -0.599028 0.713177 1.099912
113 4.967970 2.866997 3.727728 -1.055034 -0.930480 -0.417653
114 0.248744 2.672670 4.553675 0.652323 -0.504796 1.898076
115 5.235485 3.401061 0.813416 0.749966 0.562870 0.114267
116 4.353806 3.941374 1.076228 0.154607 -0.886729 0.879845
117 0.044007 3.302722 2.867558 -0.090378 0.183412 -2.073934
118 5.319170 3.752818 4.107041 -0.882404 -1.274281 -0.742615
119 4.333950 3.401706 4.312316 -0.271337 -0.601742 0.233623
120 3.834635 4.692572 0.447169 -0.138880 -1.472830 0.799744
121 4.990000 4.219023 1.772766 -0.520637 -0.849597 -2.054305
122 0.078205 4.421194 2.751051 -1.760866 -0.149134 -0.884106
123 4.621821 5.228458 3.758791 1.185398 1.547864 -0.910149
124 4.979196 4.576501 4.601013 -1.686761 -0.063852 -1.250933
ITEM: TIMESTEP
4
ITEM: NUMBER OF ATOMS
125
ITEM: BOX BOUNDS pp pp pp
0 5.386087
0 5.386087
0 5.386087
ITEM: ATOMS id x y z vx vy vz 