ITEM: TIMESTEP
0
ITEM: NUMBER OF ATOMS
125
ITEM: BOX BOUNDS pp pp pp
0 5.928156
0 5.928156
0 5.928156
ITEM: ATOMS id x y z vx vy vz 
0 1.078098 0.730641 0.564737 0.781516 0.578596 -0.064117
1 0.915811 5.553360 1.391793 0.893554 -0.694984 1.844586
2 0.265963 5.638481 2.252766 0.059907 1.230895 -3.115735
3 0.812358 0.667998 4.168819 0.578765 -0.862389 0.576451
4 5.797655 0.776911 5.139803 -1.046331 1.208162 -2.721552
5 5.836311 0.855342 1.397836 0.335359 0.333663 -2.217541
6 5.748619 2.345049 2.614610 0.152179 1.038943 -0.167680
7 0.157137 1.792788 3.988347 -0.535402 -0.265361 0.314230
8 0.873563 1.355763 5.064031 1.855287 -1.019694 0.749497
9 1.347414 1.600286 0.051615 -0.064119 0.604682 -1.200599
10 0.028583 2.595270 0.017464 1.461553 1.241096 -0.374992
11 0.063264 2.063263 1.417574 -1.418782 -1.151046 0.282632
12 0.902609 2.459891 2.083096 0.637026 0.176332 -1.521851
13 1.411127 3.336889 3.401510 -1.293616 -0.795754 2.856695
14 0.840090 3.261806 4.239895 0.096247 -2.193345 0.609324
15 0.251293 4.455397 0.239295 -0.506970 -2.428564 -1.946718
16 0.928157 2.763896 0.256014 -0.419544 -0.867534 0.932436
17 0.608079 3.052596 1.215342 -0.716557 0.451664 -0.306165
18 1.572887 4.105703 2.506411 -0.611739 1.496689 -1.283815
19 0.659303 3.403422 5.278610 0.424597 -1.256345 -0.582129
20 5.426668 0.593260 0.220710 -2.181697 2.764134 0.560718
21 1.232629 5.064739 2.447323 -0.548876 2.309339 0.085060
22 0.696882 4.206083 3.299603 1.925430 -0.845280 0.965221
23 0.859541 5.842185 4.992505 -0.559662 3.295439 2.230495
24 0.362023 4.424092 4.415480 1.346165 0.113284 0.234527
25 2.230129 0.839910 0.906513 -1.729478 -1.264797 -0.867881
26 1.055913 0.526851 1.987446 -0.427995 -0.726208 -0.398189
27 1.209660 0.854881 3.152556 -1.390026 -0.309944 1.395624
28 1.446540 5.739109 4.082554 0.679051 -0.727690 -1.768699
29 2.255845 0.200545 5.323763 -0.508021 -0.635381 0.930849
30 1.195415 1.754417 1.070187 -0.273675 -3.509312 2.275662
31 0.531913 1.222927 2.385472 -1.617776 -0.798028 0.291954
32 1.399429 1.906309 3.028312 0.572368 -0.639632 1.094509
33 1.544812 2.067692 4.428611 -1.348452 0.019808 1.120586
34 2.552512 1.952506 4.942576 -0.160032 -1.251823 -1.868743
35 1.835529 3.918129 5.195439 0.880883 0.055129 -2.170277
36 1.639425 2.703508 1.269766 -0.940669 -0.764806 0.472388
37 1.872761 2.964897 2.273699 1.854261 1.386194 -0.894521
38 2.427339 2.831172 3.230313 -0.759439 0.211777 -0.834295
39 1.835825 3.055416 4.596717 0.533035 -0.404993 0.319668
40 1.855212 3.512541 0.466053 -0.494773 -1.442111 -1.392495
41 2.136473 2.311812 5.789423 -0.278820 -1.669631 -1.223263
42 2.630352 4.862156 3.049754 0.673668 -0.585544 1.293233
43 2.275285 3.807397 4.081048 0.840626 -0.935904 -1.421881
44 1.145229 4.936878 5.049049 -0.799295 1.555380 -0.206063
45 2.425786 0.020447 1.619120 -0.347349 1.060055 0.554873
46 1.874734 0.057877 2.555717 0.794484 -0.836683 0.404241
47 1.032802 5.616013 3.281672 0.726178 0.309515 -1.279027
48 1.580947 4.565593 3.554162 -1.034888 -1.045948 -4.436426
49 1.585339 5.617315 0.395939 0.793110 -0.746630 2.187044
50 2.656344 5.517989 0.502841 -0.739888 -0.521712 0.523148
51 3.417699 0.592260 1.923023 1.267200 0.301714 0.187966
52 3.797229 0.190966 3.158183 1.409904 -1.245857 1.690399
53 2.973088 0.197084 4.584358 -0.969374 -0.162618 1.296361
54 1.919153 0.713201 4.249113 -0.364003 0.177596 -1.570367
55 3.200681 0.969176 0.779509 -0.140282 -0.967273 1.005970
56 1.747739 1.489193 1.871585 -1.202849 -0.039492 0.759958
57 2.808465 2.609478 1.839213 -0.400516 1.069884 -1.472082
58 2.992103 1.376875 2.632412 0.543226 -0.564852 -0.913150
59 2.776806 1.398425 5.756334 -0.056093 -0.528607 0.464883
60 2.277671 1.867783 0.920365 0.285717 2.723750 0.928570
61 2.391105 3.726684 1.742765 -0.965410 0.033136 1.113442
62 2.712694 3.911186 2.600291 0.326394 1.767437 -1.041724
63 3.049161 2.668700 4.397261 -0.256557 0.496063 0.054689
64 2.989548 3.119698 5.325407 -1.100825 1.290411 -0.778015
65 3.687081 4.407006 1.990126 -1.331725 0.646626 1.403378
66 2.330086 4.949706 2.029965 0.218001 2.212285 -0.043269
67 3.786535 5.125925 2.706540 -2.132186 -0.612650 0.489096
68 3.453486 4.512721 4.939437 -0.101566 2.309188 -1.175930
69 2.121994 4.424221 0.145558 -1.382335 0.595129 1.994361
70 3.976682 5.715167 1.713602 3.200569 1.654734 -0.276393
71 2.913796 5.748382 2.502360 0.957357 1.167966 0.211573
72 2.466756 5.848643 3.512328 -0.481358 -0.403049 -1.849277
73 2.391741 5.208285 4.525151 -0.175329 0.920445 -0.163351
74 3.242132 5.430002 5.391977 1.277654 -0.394921 1.091171
75 3.858279 0.011310 0.430664 0.812807 -0.339016 -0.306034
76 4.608349 5.815253 2.565787 0.422650 -0.172033 2.254177
77 5.181364 0.053293 3.380563 0.983111 -0.809886 0.042918
78 3.525953 1.168666 4.786050 -0.616552 0.443929 -1.598693
79 4.135298 5.106569 5.757495 2.673703 -1.784677 0.302165
80 3.214122 2.453823 0.296325 -3.323252 -0.005690 1.552126
81 3.966519 2.028392 0.914987 2.092652 -0.472082 -0.166669
82 4.256411 1.462490 3.046245 0.059662 -0.475685 2.165398
83 4.157499 1.122360 3.967750 -0.424120 1.701213 0.247018
84 3.802215 3.603213 4.807691 2.009371 0.254851 -1.838069
85 3.187308 3.661816 1.058137 1.077833 0.351269 0.082391
86 4.123129 3.403094 1.888107 -1.239660 -1.731895 0.134636
87 3.565405 2.968985 2.549970 -0.784643 -0.406913 -2.161013
88 3.809348 3.933374 3.290025 0.241320 0.679014 -0.858812
89 4.659239 3.779948 3.927909 -0.211224 0.246823 -1.721065
90 4.798399 3.669103 1.007950 0.879010 -2.352826 1.436899
91 4.772747 4.713917 1.873822 0.024371 0.482947 -0.841659
92 4.630908 3.966732 2.531326 -0.490212 1.027234 -0.584087
93 4.064054 4.842560 3.920344 0.944635 0.433237 -0.703984
94 4.491471 3.859968 5.668692 0.559351 1.005538 -0.173000
95 4.063703 4.727357 0.972710 -1.326577 -1.548223 2.365698
96 4.986773 5.768727 1.153605 1.497684 1.071098 -1.112819
97 5.340796 5.132329 2.782160 -0.345253 0.130125 1.308267
98 3.759543 0.379637 5.371110 -1.570532 0.868369 0.917922
99 4.666704 4.967861 4.723932 0.830637 -3.045694 -2.547239
100 4.661365 0.797937 1.015512 0.958605 0.966804 0.816908
101 5.024562 1.753679 1.727365 0.767669 0.628883 0.069487
102 5.648180 1.148175 3.012573 -0.183829 -0.969218 1.606113
103 4.786894 0.361534 5.029371 -1.569799 1.930769 0.827800
104 4.171131 1.748926 5.517561 -1.766351 1.852169 -1.371880
105 5.283988 2.859496 1.714979 1.122286 -2.877553 0.354690
106 4.560308 2.780063 2.832198 -1.129406 -0.816545 0.316557
107 4.967936 1.680652 4.232525 -0.327474 -0.273350 2.562363
108 5.301678 1.944144 5.441469 0.732337 -0.560897 -0.722661
109 5.604137 1.536469 0.634261 -1.831627 -0.328073 1.208457
110 4.477842 2.909671 0.411159 2.738137 0.886695 -0.144252
111 5.570859 4.089058 1.654760 -0.199895 1.742882 -1.161768
112 4.357383 2.624098 3.915390 -1.149183 0.206830 1.921993
113 5.881690 2.721974 4.486172 -0.152000 2.550592 0.299746
114 1.300964 2.457607 5.249309 1.066088 -0.872716 -1.106688
115 5.641228 3.902276 5.330487 0.757301 -0.632784 -3.374669
116 5.226534 4.578969 0.853479 -0.788596 1.126439 0.688067
117 0.619848 3.446531 2.456821 1.371830 -1.859459 0.395127
118 5.523745 4.381123 3.549364 0.460329 0.968802 -0.204038
119 4.993865 2.970239 5.401622 -2.170382 -0.028219 0.760395
120 5.405206 0.246737 2.066403 0.752393 0.084555 1.924444
121 1.295611 4.197635 1.413492 -0.783715 -0.409619 -0.075794
122 0.347007 4.544093 2.197348 1.754045 0.628801 -0.727384
123 4.046326 0.114094 4.171710 0.536241 -2.180700 0.454136
124 5.854852 5.603596 5.472126 -0.308769 -0.006864 2.237127
ITEM: TIMESTEP
1
ITEM: NUMBER OF ATOMS
125
ITEM: BOX BOUNDS pp pp pp
0 5.928156
0 5.928156
0 5.928156
ITEM: ATOMS id x y z vx vy vz 
0 1.076583 0.694701 0.520310 -2.096733 -1.495413 -1.605000
1 1.135267 5.391831 1.353879 1.064056 -1.884881 -2.055093
2 0.302037 5.680652 2.063730 -0.635947 0.062857 -0.397487
3 0.826157 0.593020 4.236629 -0.342087 -0.681160 0.571961
4 5.702700 0.934954 4.813064 -0.549045 1.335677 -2.700592
5 0.005965 0.832508 1.203818 1.011504 -0.557342 -1.138040
6 5.806796 2.428288 2.620857 0.992871 0.270274 0.548567
7 0.104236 1.740124 4.032373 -0.360379 -0.549678 0.506766
8 1.049327 1.233102 5.033746 1.639137 0.649591 -1.279971
9 1.349076 1.670665 0.049658 -0.198247 -0.028744 1.423922
10 5.878674 2.727855 5.828330 -1.174808 1.129608 -1.069231
11 0.158834 1.936636 1.489225 2.081289 -1.337174 0.581936
12 0.931864 2.367831 1.979333 -0.422807 -1.777270 0.362125
13 1.434809 3.272576 3.520142 1.232874 -0.334301 -0.316452
14 0.855968 2.995171 4.365916 0.637473 -2.552959 0.638089
15 0.185745 4.159866 0.002487 -0.588626 -2.529818 -2.018198
16 1.117863 2.635078 0.426025 0.161145 -2.272862 1.035991
17 0.474932 3.138699 1.230748 -1.323392 0.827709 0.433627
18 1.531762 4.154863 2.293500 0.026493 -0.779556 -1.950090
19 0.697317 3.307060 5.336665 -0.481163 0.859608 1.888388
20 5.156709 0.736123 0.162971 -2.207536 0.029755 -1.380281
21 1.337304 5.194255 2.282960 2.126148 -0.277864 -0.240774
22 0.617062 3.996576 3.350110 -1.403876 -1.909810 0.176257
23 0.770356 0.382897 5.300183 -1.208165 2.059419 3.498457
24 0.514810 4.399753 4.420900 1.148050 -0.545865 -0.301685
25 2.016404 0.696453 0.801998 -0.006563 -0.835912 -0.728073
26 1.114099 0.438948 1.915592 1.040621 0.007694 -0.490687
27 1.071778 0.804726 3.266421 -0.717130 0.536544 0.168808
28 1.600941 5.629879 4.115744 -0.226260 -0.442806 -0.079502
29 2.145316 0.112116 5.496634 -1.061862 -0.822499 1.719924
30 1.017180 1.443050 1.224770 -1.884070 -1.488536 1.369960
31 0.327322 1.251354 2.384698 -1.499269 0.496706 -0.420967
32 1.465671 1.863724 3.138615 0.516925 -0.173475 0.806458
33 1.450144 1.878828 4.223282 -0.718774 -1.878866 -2.316602
34 2.494869 1.776432 4.665174 -1.529282 -0.987076 -2.288990
35 1.928750 3.985024 4.969970 0.711188 0.935684 -1.661001
36 1.560377 2.696155 1.268307 -0.100639 1.361987 0.221502
37 1.935864 3.041496 2.290838 -0.812723 0.212865 0.219114
38 2.360123 2.868978 3.180271 -0.021224 0.211867 0.513549
39 1.954535 2.937576 4.599620 1.241671 -1.523539 -0.217693
40 1.820444 3.295737 0.317023 1.099733 -0.812619 -1.332614
41 2.216113 2.194195 5.736695 0.646738 -0.425096 -1.003082
42 2.709974 4.877058 3.274694 1.029036 0.660049 2.558644
43 2.395220 3.742015 3.860325 1.035136 -0.391690 -2.014063
44 1.118138 5.025216 5.035875 0.190429 0.889335 0.055102
45 2.386295 0.190637 1.609369 -0.119012 1.558110 -0.202451
46 1.902615 0.010462 2.571609 -0.157664 0.742914 -0.425837
47 0.890900 5.786767 3.137366 -1.951515 1.382321 -0.284818
48 1.760981 4.635115 3.175995 1.771005 1.508695 -1.714534
49 1.620248 5.559432 0.631880 0.881023 0.263668 -0.014130
50 2.660403 5.470497 0.562771 0.841127 -0.234612 0.515789
51 3.545335 0.681066 1.920552 1.462499 0.535394 -0.580340
52 3.817796 0.123343 3.361161 -1.088646 0.119144 2.029152
53 2.935997 0.226816 4.661503 0.127825 0.627648 0.325712
54 1.926282 0.789945 4.076516 0.292254 0.899212 -1.359310
55 3.254807 0.853387 0.892999 0.478708 -1.053398 0.816306
56 1.716740 1.452530 2.143174 0.111824 -0.392364 2.885455
57 2.760445 2.737473 1.596085 -0.166705 1.572090 -2.249156
58 3.044206 1.322948 2.538640 0.109941 -0.088022 -0.394163
59 2.793971 1.291416 5.853807 0.311714 -1.167443 0.838875
60 2.284729 2.076387 1.041863 -1.278143 -1.093638 1.650892
61 2.231883 3.812688 1.531789 -0.972340 1.397992 -2.867812
62 2.836035 4.034831 2.659153 0.081542 -0.514138 0.831470
63 3.045453 2.760839 4.309539 0.032608 0.904882 -1.065743
64 2.816739 3.288812 5.293898 -1.708786 1.396249 -0.058341
65 3.522503 4.354766 2.075977 -0.762321 -0.942144 0.284328
66 2.333737 5.125050 2.052099 0.221995 0.624678 0.403492
67 3.607314 5.084025 2.880536 -0.657242 -0.372237 1.473377
68 3.466690 4.741366 4.718849 0.398548 1.446395 -2.447686
69 1.970964 4.574404 0.377565 -1.267446 1.281274 1.938222
70 4.374935 5.831303 1.630968 2.773637 1.170436 -0.918695
71 3.055682 5.907543 2.541890 0.857898 1.598906 0.137299
72 2.424049 5.831081 3.436414 0.049256 0.397745 1.124034
73 2.402099 5.249962 4.530869 1.348107 -0.805989 0.743258
74 3.280678 5.428689 5.594650 -0.086700 0.266884 2.099907
75 3.959613 5.887504 0.465394 0.938660 -0.537818 0.630890
76 4.552537 5.748764 2.687736 -0.471735 -1.047077 0.214302
77 5.362191 0.049052 3.527538 1.608197 0.096809 1.677903
78 3.296882 1.269510 4.725555 -2.345619 0.554485 0.689332
79 4.482668 4.915714 5.799546 2.625310 0.370219 0.590139
80 2.918938 2.505089 0.437387 0.369126 1.952585 0.233018
81 4.233589 1.958955 0.892327 2.355951 -0.662589 -0.203897
82 4.306723 1.495719 3.025943 0.626658 0.600445 -1.274938
83 4.148465 1.172498 4.092265 0.726855 -0.387810 0.871231
84 4.070999 3.582178 4.573752 2.117834 -0.062322 -1.639724
85 3.336710 3.696731 1.085447 1.071824 0.152436 0.374149
86 4.079023 3.280925 1.705688 -0.936230 -0.972357 -1.183259
87 3.293529 2.847844 2.521213 -2.513651 -0.928177 0.682637
88 3.759310 4.021378 3.144548 -1.111976 0.685065 -1.269077
89 4.660093 3.809843 3.748294 0.324882 0.324262 -1.520200
90 4.940304 3.505356 1.270986 1.755374 -0.390175 1.848831
91 4.734531 4.909300 1.788748 -0.125531 1.843705 -0.003223
92 4.611227 4.063021 2.543654 0.180398 0.733714 -0.001879
93 4.077194 4.887403 3.705122 0.051418 0.225035 -1.801376
94 4.555666 3.981788 5.653369 0.806856 -0.763183 -0.439297
95 3.924670 4.553103 1.190786 -0.796302 -1.206933 0.622066
96 5.202119 5.828550 1.019803 2.247263 0.596325 -1.262029
97 5.367090 5.071249 2.806874 0.417719 -0.433756 -1.025661
98 3.592143 0.546184 5.486933 -1.462158 1.832262 1.068066
99 4.847982 4.593611 4.554073 1.728330 -3.316890 -0.934239
100 4.718482 0.978602 1.156703 -0.090120 1.110494 1.402559
101 4.985772 1.700554 1.768248 -0.997451 -1.189863 0.807668
102 5.557266 1.025366 3.259368 -0.977272 -0.842249 2.214316
103 4.609438 0.598213 5.119985 -1.302596 2.119537 0.620663
104 3.965763 1.970861 5.354911 -1.605148 1.817077 -1.408621
105 5.348716 2.714647 1.728138 0.023477 0.387659 -0.321076
106 4.456009 2.693099 2.862897 -0.829006 -0.625562 0.190359
107 4.986687 1.689858 4.541454 -0.309435 0.022835 1.168631
108 5.390212 1.844563 5.380861 1.313744 -0.620050 1.119580
109 5.321567 1.719149 0.675286 -2.539620 3.017445 -0.066215
110 4.690661 2.867280 0.442424 1.207560 -1.139291 0.849354
111 5.630058 4.153499 1.619832 1.084772 0.434412 0.253569
112 4.218217 2.651092 4.151592 -1.101564 0.072055 1.934545
113 5.719939 2.965994 4.588933 -2.456297 0.581134 0.918803
114 1.208586 2.478154 5.331327 -0.724553 -0.447608 0.066711
115 5.689217 3.836403 4.927291 -0.024932 0.382642 -2.836965
116 5.077280 4.815199 0.769458 -1.437171 1.937782 -1.478185
117 0.793608 3.279213 2.512107 1.529273 -0.897775 0.545614
118 5.596553 4.435926 3.595483 0.699465 -0.236420 1.327339
119 4.831952 2.938253 5.283329 -0.755864 -0.410141 -2.574672
120 5.346146 0.421126 2.267130 -0.728299 2.139074 1.416266
121 1.192135 4.140528 1.378564 -1.213259 -0.531614 -1.338119
122 0.540799 4.568107 2.144673 0.854540 -0.518980 -0.341777
123 4.125187 5.760618 4.356068 0.723204 -2.283287 2.450031
124 5.799350 5.612677 5.747081 -0.529798 0.191366 2.328326
ITEM: TIMESTEP
2
ITEM: NUMBER OF ATOMS
125
ITEM: BOX BOUNDS pp pp pp
0 5.928156
0 5.928156
0 5.928156
ITEM: ATOMS id x y z vx vy vz 
0 0.878267 0.532789 0.600587 0.084931 -1.338847 3.258146
1 0.993360 5.095302 1.317735 -1.529121 -2.260847 -0.550172
2 0.222477 5.679759 2.025650 -0.617128 -0.034120 -0.333680
3 0.763866 0.488969 4.316324 -0.546866 -0.728505 0.641778
4 5.658828 0.959785 4.565160 -0.673404 -1.408633 -0.986386
5 0.098990 0.790221 1.097249 0.347139 0.785418 -0.028093
6 0.034638 2.431638 2.687896 1.526855 -0.175375 0.502114
7 0.119678 1.755649 4.050320 0.993875 1.560231 -0.608608
8 1.279513 1.406438 4.971178 1.720552 0.244818 1.480202
9 1.368877 1.466686 0.215489 0.646978 -2.880169 1.123638
10 5.696929 2.870640 5.725298 -1.759070 1.381196 -0.758978
11 0.049554 1.853800 1.483637 -1.846403 -0.645938 -0.831223
12 0.993083 2.174041 2.149713 1.014805 -1.609501 1.721639
13 1.503455 3.263816 3.492427 -0.124226 0.198325 0.018916
14 0.916734 2.692676 4.396072 0.219130 -2.181132 -0.598691
15 5.883869 4.028692 5.810828 -3.476522 0.488372 0.356851
16 0.936533 2.447221 0.499189 -2.105485 -0.496804 0.902158
17 0.323898 3.221820 1.303336 -1.214296 0.545163 0.736371
18 1.602835 4.022611 2.179488 0.710153 -0.570494 -0.758572
19 0.781239 3.345343 5.439109 2.327910 -1.106242 -0.349064
20 4.940683 0.740639 0.083765 -1.223805 -0.029216 0.384998
21 1.385827 5.170861 2.306825 -0.616324 1.165174 -0.575029
22 0.496588 3.760916 3.359642 -0.756951 -1.975993 0.096163
23 0.479594 0.438140 5.461167 -3.452256 -0.113355 -1.940210
24 0.711781 4.341002 4.337054 2.532171 -0.234753 -1.107809
25 2.055635 0.709277 0.643960 0.404430 1.249747 -1.403523
26 1.231729 0.425620 1.850562 0.949192 -1.293865 -0.090058
27 1.028269 1.019517 3.249602 -0.428435 1.763408 -0.259075
28 1.492148 5.609379 4.076768 -0.998389 -0.121096 -0.413474
29 2.124158 0.100377 5.500861 1.504062 1.397928 -3.514612
30 1.033192 1.208697 1.342310 1.245416 -0.703699 0.346978
31 0.171227 1.288163 2.355870 -0.909110 0.151030 0.179761
32 1.531140 1.958707 3.103122 0.698972 2.844484 -1.362603
33 1.268309 1.721145 4.021808 -3.598453 -0.547770 -1.734030
34 2.180032 1.784972 4.415726 -1.207403 0.010122 -1.234398
35 1.998565 4.102337 4.750764 0.362775 1.131494 -2.122054
36 1.579857 2.987170 1.369816 -0.284253 2.530755 -0.532912
37 1.888449 3.070558 2.313870 1.565879 -0.365078 1.469058
38 2.411354 2.785805 3.302232 -0.036808 -1.706536 1.708274
39 2.068311 2.758146 4.569463 0.344735 -0.906621 -0.166471
40 2.009903 3.227477 0.154763 1.410359 -0.751566 -1.013585
41 2.254537 2.165386 5.560226 0.220332 -0.111122 -1.604226
42 2.860956 4.866225 3.693086 1.215632 -0.561714 3.447553
43 2.526041 3.762730 3.714711 0.940301 0.651399 1.215440
44 1.172998 5.154386 5.052501 0.630964 1.159817 0.159915
45 2.425353 0.335061 1.647001 0.634536 1.030150 0.420378
46 1.940805 0.241792 2.601004 0.614354 2.136922 0.990259
47 0.640778 5.799922 3.065720 -2.023992 -0.167540 -0.721411
48 1.911360 4.752941 3.064012 1.994369 0.102801 0.564034
49 1.730110 5.671884 0.491463 -1.479724 -0.473610 1.848363
50 2.809042 5.460140 0.721041 1.255573 0.049773 2.406807
51 3.802078 0.719614 1.854863 2.446412 0.398728 -0.104867
52 3.667451 0.132312 3.622786 -1.330015 -0.156531 2.245162
53 2.943844 0.268942 4.689413 -0.055048 -0.207474 0.130316
54 1.949321 0.881681 3.921106 -0.022745 0.511410 -1.268104
55 3.277668 0.711418 0.912065 -0.118483 -1.360499 -0.507913
56 1.736563 1.334496 2.365920 0.504786 -2.281477 -0.031380
57 2.735825 2.992733 1.401276 -1.284531 1.457683 -0.297150
58 3.022028 1.331855 2.521202 -0.322102 0.004599 -0.125286
59 2.730205 1.216935 0.066009 -1.936834 0.495908 1.656488
60 2.101036 1.775699 1.183791 -1.717496 -2.777305 0.983434
61 2.154466 3.941436 1.184340 -0.251443 0.294516 -2.417577
62 2.577222 3.894510 2.771894 -2.833263 -1.046397 -1.046729
63 3.054065 2.876429 4.178068 0.247930 1.037950 -1.115638
64 2.611272 3.423097 5.292612 -1.372518 0.765277 -0.088172
65 3.508961 4.258380 2.093261 -0.163514 -0.929354 -0.211104
66 2.519697 5.148890 2.082255 2.196843 0.096006 0.296494
67 3.541204 5.129319 2.734910 -0.493077 0.576117 -1.968753
68 3.519202 4.877587 4.421115 0.396164 0.085628 -2.261976
69 1.827887 4.641881 0.615619 -1.365999 0.482231 1.664887
70 4.597269 0.103453 1.556482 1.392302 -0.788293 0.639571
71 3.099457 0.171436 2.564758 -0.019102 1.710887 0.255345
72 2.456809 0.026203 3.617239 0.639864 0.996565 1.453967
73 2.569908 5.119966 4.643925 0.390164 -0.784455 1.232708
74 3.315881 5.470198 5.732112 0.810811 0.483626 -0.063521
75 4.088646 5.832749 0.552620 1.216929 -0.342188 0.788545
76 4.476929 5.623350 2.715257 -0.623196 -0.879822 0.239169
77 5.537137 5.864732 3.733582 1.454176 -1.497159 1.672512
78 3.209228 1.287597 4.823313 -0.366166 0.750955 0.604285
79 4.661308 5.133841 5.657640 0.700202 2.261797 -2.697606
80 3.030045 2.787319 0.445092 0.991740 2.285052 -0.626909
81 4.215612 1.897653 0.948985 -2.275580 -0.339437 1.082712
82 4.390486 1.553503 2.870725 0.712076 0.194296 -1.180269
83 4.188166 1.074081 4.159807 -0.369262 -1.237533 -0.168805
84 4.244956 3.660998 4.495513 -0.266555 -0.253472 -0.156826
85 3.303924 3.680931 1.048617 -0.576755 0.694149 -1.217881
86 3.982984 3.098321 1.688820 -0.383856 -1.885489 0.515508
87 3.057798 2.764982 2.552262 -0.849370 -0.506005 -0.974868
88 3.683001 4.054892 3.094547 -0.304712 0.020438 0.521723
89 4.727652 3.852803 3.473312 0.581623 0.143481 -2.691131
90 5.024229 3.594305 1.325976 -0.198971 0.992439 -0.196986
91 4.776624 4.991993 1.843813 0.400471 0.235920 0.505621
92 4.659173 4.166749 2.504276 0.404488 0.996890 -0.724640
93 4.259797 4.859622 3.715628 2.209990 -0.328427 0.150813
94 4.680375 3.766845 5.564736 1.269230 -1.613974 -0.746635
95 3.988756 4.551676 1.121720 1.384814 0.754575 -1.086334
96 5.489222 0.034400 0.890367 0.978600 1.265748 0.927053
97 5.442662 5.014850 2.655824 0.924686 -0.558731 -1.159712
98 3.517756 0.652765 5.634794 0.826382 -0.663322 1.213618
99 4.856346 4.347517 4.407338 -1.418380 0.904495 -1.415136
100 4.673487 0.960722 1.144039 0.055075 1.742164 -1.762092
101 4.950468 1.709951 2.021418 0.025311 0.242361 2.438662
102 5.453844 1.042328 3.484792 -0.896171 0.630073 1.593119
103 4.433756 0.868187 5.107146 -1.706053 2.284520 -0.732703
104 3.785918 2.179867 5.177666 -1.598745 1.433441 -1.022871
105 5.421778 2.603747 1.741865 0.439637 -0.761758 0.287112
106 4.350032 2.634009 2.876310 -0.933646 -0.262969 0.017200
107 4.873895 1.771535 4.565761 -0.733508 1.561977 0.406678
108 5.599558 1.765742 5.635524 1.828419 -1.086342 1.463210
109 5.357867 2.001180 0.630485 3.257280 0.570857 0.184381
110 4.824470 2.820666 0.505811 0.251273 1.593993 0.092439
111 5.758425 4.270149 1.641649 0.354905 1.177984 -0.332764
112 4.101098 2.530038 4.330170 -1.123131 -1.589119 0.152322
113 5.552694 2.747856 4.553895 0.126408 -2.420069 -1.167907
114 1.192925 2.343413 5.298603 0.310494 -1.225068 0.484596
115 5.796283 3.981997 4.778205 2.326393 -0.275033 -0.017752
116 5.006072 4.960997 0.811454 0.023349 0.809890 1.772686
117 0.932481 3.196861 2.571266 -0.012528 -0.530294 0.480991
118 5.656980 4.422783 3.774854 0.672024 0.190775 1.099158
119 4.645874 2.863244 5.065959 -2.247665 -0.881740 -0.204809
120 5.258016 0.676122 2.413847 -1.007625 1.905998 1.049159
121 0.995930 4.065412 1.087433 -1.687789 -0.849740 -2.561013
122 0.639979 4.521577 2.168902 1.202961 -0.328033 1.007886
123 4.230759 5.539850 4.674922 1.586639 -0.860302 2.861247
124 5.739647 5.630958 0.060604 0.117024 -0.611974 -0.197802
ITEM: TIMESTEP
3
ITEM: NUMBER OF ATOMS
125
ITEM: BOX BOUNDS pp pp pp
0 5.928156
0 5.928156
0 5.928156
ITEM: ATOMS id x y z vx vy vz 
0 0.900830 0.350406 0.865841 -2.281264 0.566289 2.445205
1 0.785840 4.922205 1.270003 -2.184556 -0.761393 0.191150
2 0.160152 5.673047 1.942418 -0.399260 -0.048708 -1.196169
3 0.703249 0.439032 4.367443 -0.377325 -0.168370 0.109622
4 5.561411 0.780546 4.517560 -1.554847 -0.962565 -0.810850
5 0.102275 0.887292 1.143332 0.099165 -1.270712 -0.448272
6 0.204437 2.385748 2.746881 0.995574 -0.699447 0.569499
7 0.046870 1.918881 3.931315 -1.464832 -0.683208 -2.721911
8 1.508612 1.241555 5.117000 2.040552 -2.044988 0.889376
9 1.323441 1.270784 0.272318 -1.464012 -0.404649 -0.074630
10 5.513487 3.013758 5.608118 -0.618525 0.377555 -1.148720
11 0.059631 1.877347 1.621686 1.250494 3.176380 2.736023
12 1.043060 1.959256 2.215838 -0.270886 -1.925078 -0.561578
13 1.494903 3.297642 3.521204 0.112924 0.329483 0.395116
14 0.918183 2.572529 4.315282 -0.035085 0.531109 -0.145954
15 5.526407 4.114925 0.003001 -1.303759 1.681954 1.998166
16 0.682894 2.389762 0.612692 -2.024955 -0.486459 1.001976
17 0.183874 3.274692 1.396814 -0.903525 0.528787 0.709836
18 1.611096 4.024478 1.996163 -0.685129 0.182644 -2.557462
19 1.028545 3.273937 5.393088 1.754974 0.410749 -0.460890
20 4.830614 0.685886 0.088559 -0.674329 -1.097356 -0.832158
21 1.403434 5.323202 2.290635 0.674713 -1.413121 1.388427
22 0.384797 3.554623 3.420156 -1.058626 -1.537564 0.865829
23 0.091819 0.442469 5.259795 -2.410200 -0.308475 -0.204911
24 1.066340 4.329729 4.174167 2.588855 -0.045273 -1.628884
25 2.066149 0.597959 0.722177 0.944498 -1.908781 1.832284
26 1.329926 0.234233 1.822807 0.536602 1.178896 -1.767428
27 0.948034 1.080039 3.038869 -0.667280 -0.606847 -3.207077
28 1.404387 5.590979 4.001392 -0.433435 -0.204091 -0.856889
29 2.194176 0.262485 5.184566 -1.135813 1.317085 -1.290686
30 1.040934 1.298312 1.413147 -2.652707 0.276754 1.039151
31 0.150207 1.317743 2.433519 0.215716 -0.189865 1.535092
32 1.614636 2.317545 3.031169 -1.643373 0.763242 0.949792
33 1.085547 1.625341 3.935925 1.348999 -1.600058 0.052831
34 2.121230 1.736370 4.311065 -0.095396 0.065850 -0.415808
35 1.983285 4.262080 4.501729 -0.788202 1.734741 -1.213652
36 1.453654 3.236588 1.286737 -2.021038 1.178487 -0.390045
37 2.072852 2.872427 2.470294 0.684958 -1.264952 -0.460464
38 2.402711 2.580821 3.543604 1.152997 -1.142802 2.689727
39 2.045232 2.815534 4.557885 -0.602854 1.124944 -0.345185
40 2.051105 3.082860 0.188777 -0.314492 -1.465077 0.856973
41 2.303301 2.151830 5.366097 0.663251 -0.058963 -1.698296
42 2.804578 4.807935 3.754617 0.900034 0.385831 1.070190
43 2.629622 3.818563 3.904461 1.032598 -0.228673 0.429883
44 1.261872 5.293251 5.069711 0.868494 1.154703 0.100199
45 2.492842 0.460735 1.677349 0.402146 1.042142 0.335650
46 2.067951 0.319243 2.844518 1.252091 -0.968267 2.789473
47 0.416481 5.788536 2.990123 -1.687841 -0.047393 -0.499412
48 2.104403 4.765336 3.099016 -0.323148 0.206532 -1.355060
49 1.658133 5.658435 0.683491 1.751972 -1.110782 1.020903
50 2.941145 5.486743 1.034166 0.969948 0.194603 2.686862
51 4.061414 0.806601 1.870038 1.880415 1.080447 0.276840
52 3.538871 0.069459 3.871758 0.606655 -1.240727 0.711349
53 3.062919 0.229526 4.640642 2.179468 -0.035436 0.140740
54 1.861569 0.909963 3.733698 -1.336135 -0.395521 -2.061071
55 3.256549 0.536127 0.842282 -0.203674 -1.306588 -0.395688
56 1.768502 1.182345 2.248715 -0.043036 0.116309 -1.598369
57 2.520148 3.022335 1.499054 -1.281446 -0.791650 1.351952
58 2.967966 1.347427 2.490553 -0.655271 0.702396 -0.436220
59 2.673404 1.436665 0.101379 0.367270 2.196741 -0.255952
60 2.043095 1.499634 1.284774 2.345508 -1.261328 0.493635
61 2.237434 3.870350 1.002716 1.162343 0.501710 -1.840333
62 2.417472 3.852958 2.640667 0.741344 0.549654 0.005995
63 3.148823 2.995872 4.118266 1.392454 0.734848 0.360850
64 2.565309 3.521615 5.152872 0.136988 0.890604 -1.617328
65 3.482225 4.131440 2.012503 -0.223472 -1.103889 -0.808617
66 2.680146 5.169648 2.076614 -0.831177 0.268968 -1.188502
67 3.521301 5.157047 2.587801 1.435930 -0.115303 0.172643
68 3.796969 4.816837 4.441700 2.107017 -1.483704 0.558481
69 1.611927 4.684244 0.684568 -1.489584 -1.795711 0.103633
70 4.717847 0.034964 1.685410 -0.253060 1.480771 1.578302
71 3.100035 0.343643 2.607298 0.328188 0.596262 0.480896
72 2.552484 0.048057 3.754108 -0.061486 -0.499600 0.655670
73 2.535734 5.103480 4.891451 -0.253601 0.385946 2.249939
74 3.415027 5.507920 5.687584 0.721454 -0.269276 -0.547780
75 4.244492 5.800483 0.644441 1.331628 -0.219226 0.733656
76 4.463593 5.561131 2.745882 0.442509 0.319759 -0.235985
77 5.718224 5.695137 3.927450 1.535686 -1.337064 1.629842
78 3.154513 1.371770 4.891322 -0.684040 0.221341 0.491440
79 4.895980 5.281689 5.685416 1.754905 0.106179 2.394376
80 3.150454 3.015007 0.301814 0.972731 1.476389 -1.498926
81 3.915888 1.935545 1.080827 -2.704656 0.745526 1.177113
82 4.329556 1.483736 2.941676 -1.247272 -0.984867 1.596550
83 4.105522 0.952144 3.978809 -0.593027 -0.656414 -1.921096
84 4.047340 3.491568 4.461072 -1.865467 -1.449580 -0.461398
85 3.322473 3.894343 0.891642 0.364952 2.165651 -0.958145
86 3.934015 2.882469 1.753229 -0.401647 -1.693508 0.512666
87 3.043112 2.716341 2.380829 1.221189 -0.556519 -1.381495
88 3.637005 4.071411 3.207175 -0.447373 0.318123 1.074787
89 4.808509 3.812303 3.314275 0.738505 -0.599872 -0.182418
90 4.966740 3.700290 1.313114 -0.582482 1.059546 0.201018
91 4.788504 5.021072 1.870525 0.129973 0.032718 -0.147722
92 4.651332 4.205057 2.361457 -0.691650 -1.581588 -0.619268
93 4.442054 4.939046 3.469988 1.005591 0.674841 -2.768528
94 4.788853 3.652943 5.480722 -1.278667 -0.518194 -1.511264
95 4.129711 4.638265 1.016994 0.698185 0.572967 -0.594864
96 5.477113 0.058651 1.050773 0.726970 -0.094833 0.214167
97 5.610118 4.937711 2.584730 1.663057 -0.781750 -0.100081
98 3.609088 0.576034 5.798968 0.776586 -0.028900 1.267734
99 4.881580 4.514113 4.479816 0.597536 0.999995 1.871753
100 4.742202 1.183683 0.998806 0.936869 1.791747 -0.030263
101 5.084805 1.761436 2.089886 1.360735 0.541709 -0.391841
102 5.318531 1.129781 3.579883 -1.441894 0.970876 -0.201367
103 4.272272 1.137746 5.135427 -1.236570 2.252154 0.550579
104 3.498537 2.283289 5.253670 -2.706568 1.014405 1.152436
105 5.367448 2.708929 1.801344 -0.995894 1.675727 0.564712
106 4.229531 2.637822 2.866252 -1.079883 0.184646 -0.157970
107 4.807564 1.902782 4.628474 -0.709030 -0.137846 0.328315
108 5.853025 1.573707 5.612369 2.218938 -1.879858 -0.949661
109 5.593467 2.152826 0.612429 0.884571 2.007366 -0.963220
110 4.810181 3.044188 0.510158 -0.297129 1.652077 -0.058091
111 5.763228 4.443187 1.571088 -0.014801 1.672276 -0.640621
112 3.966800 2.361695 4.030939 -0.835120 -1.501959 -3.136669
113 5.557124 2.573965 4.485301 -0.950094 1.663207 1.367302
114 1.233543 2.281272 5.471628 0.365177 -0.992253 1.768880
115 0.095210 3.892077 4.777963 1.722478 -1.003584 0.097364
116 5.068871 5.070741 0.890453 1.268961 0.820995 -0.786128
117 0.914293 3.119319 2.552298 0.391324 -0.567358 -0.792915
118 5.794138 4.472008 3.827223 1.386051 0.571979 0.009533
119 4.497130 2.703306 5.147432 -0.923926 -1.476197 0.961332
120 5.065616 0.807255 2.541562 -1.871140 0.154408 1.097511
121 0.813750 3.908701 0.783239 -1.432277 -1.412740 -2.663944
122 0.708470 4.422796 2.342916 -0.082738 -0.831137 1.666563
123 4.301518 5.640724 4.710821 0.023813 2.751834 -1.582538
124 5.790780 5.488105 5.842087 1.616476 -1.073960 -0.781119
ITEM: TIMESTEP
4
ITEM: NUMBER OF ATOMS
125
ITEM: BOX BOUNDS pp pp pp
0 5.928156
0 5.928156
0 5.928156
ITEM: ATOMS id x y z vx vy vz 